     480
 Properties=species:S:1:pos:R:3:velocities:R:3:forces:R:3:local_energy:R:1:fix_atoms:S:3 Lattice="31.6575874013       0.0000000000    0.0000000000    0.0000000000   31.4396548309    0.0000000000    0.0000000000    0.0000000000   31.8225730859" temperature=1264.27481076 pressure=728.97880642 time_step=1.0000 time=1000000.000000 energy=-2135.014459 energy_soap=-767.28440812  energy_2b=-932.64329191 energy_3b=0.00000000 energy_core_pot=0.00349096 energy_vdw=0.00000000 energy_exp=0.00000000 energy_xps=0.00000000 virial="-47.70423767         -3.39442029     15.18742174     -3.39442029    -49.46983233     24.55493677     15.18742174     24.55493677    -16.14926365" stress="0.00150614            0.00010717     -0.00047951      0.00010717      0.00156189     -0.00077526     -0.00047951     -0.00077526      0.00050987" volume=31673.122212 step=1000000
 Cu            10.17200159       9.43021256      12.02887669      -0.00348830      -0.00263510       0.00324507      -0.38367423       0.85739026       0.60804932      -3.31234574 F F F
 Cu            17.98634760      24.11899165      16.40139548       0.00038461      -0.00155142       0.00093801      -0.50184207       0.98492244       1.87706653      -3.25932216 F F F
 Ni            16.16180666      14.92220419       9.77014809       0.00224660       0.00146564      -0.00069017      -1.48027286       1.76700873      -0.24697059      -6.02100496 F F F
 Ni            21.09973688      20.50780873      12.62134349      -0.00471313      -0.00105368      -0.00619169       1.87856553      -0.78128903      -0.39619859      -6.25716197 F F F
 Cu             9.93741379      21.44745716      22.25343978      -0.00869443       0.00047431       0.00698129      -0.06366683       1.13305362      -0.34898359      -3.04815799 F F F
 Ni             7.89271030      15.22499271      21.96672092       0.00055119      -0.00109889       0.00339256       1.09041129       0.17746492      -0.08134280      -4.82373491 F F F
 Ni            19.23823487      12.70914983      21.83477324       0.00234679       0.00104406      -0.00039519       0.48974389      -0.02943495      -0.28278090      -6.18697104 F F F
 Cu            12.77978488       8.33805108      20.91441277      -0.00131228      -0.00333156      -0.00238642       0.52921509      -1.36172199      -0.77764739      -3.27567147 F F F
 Cu            24.61302978      22.56179008      18.45423631      -0.00083223       0.00094919       0.00408506       0.13559069       0.16880588       1.12341858      -2.51602372 F F F
 Cu            13.21002405      22.19102147       8.26901136       0.00245947      -0.00331403      -0.00249722      -0.75311422      -1.58840436       0.07139160      -2.82413016 F F F
 Cu            12.57683441      21.29925661      12.74422493       0.00181504       0.00189451      -0.00154314      -3.89051292       0.08053828      -0.91147613      -3.49626154 F F F
 Ni             9.18677036      14.37304931      19.97298091       0.00283317       0.00403767       0.00212572      -0.65849321      -0.05864639       0.78511873      -6.01359222 F F F
 Ni            16.61754776       9.47962107      11.34949294       0.00497171      -0.00066443      -0.00397319       3.87113974      -1.46619722      -1.26667845      -5.87125433 F F F
 Cu            12.22203685      18.95081401      12.18058039      -0.00718750      -0.00639196      -0.00223397       1.37367846      -0.47677875       0.31084474      -3.86352917 F F F
 Cu            20.93351023       8.58029381      10.55135493       0.00012782      -0.00584853      -0.00233288      -0.16233818       0.67105754      -0.74274949      -2.72450729 F F F
 Ni            11.61196940       9.52280889      22.55728039       0.00392728       0.00070859       0.00129467       0.33875650       1.53421499      -0.11359734      -4.74971989 F F F
 Cu            21.59778121      15.47096760       6.20425236      -0.00376257      -0.00608219       0.00326042      -0.38535981       0.11441618       1.39402898      -2.41974943 F F F
 Ni            15.33267052      23.20197297      18.47592315       0.00136733       0.00486853       0.00073244       2.38136548       1.62894234      -0.73928251      -5.69085361 F F F
 Cu             6.20971626      15.95373192      13.63495856       0.00181343       0.00064265       0.00157049      -0.05984586       1.09931252       0.02551939      -3.28247420 F F F
 Ni            15.44080596      16.26265706      14.36739736       0.00624247       0.00430011       0.00369189      -0.23503244      -1.06113140       0.78329209      -6.00848777 F F F
 Cu             9.97444495      22.40989338      10.24565151       0.00008922      -0.00660234      -0.00417685       0.77655867      -0.31759806       0.14671120      -3.03920668 F F F
 Cu             9.93941847      17.79366257      16.61496341      -0.00290000      -0.00012141      -0.00580299       2.18470711      -0.13010780       0.18931930      -3.72221207 F F F
 Cu            17.79076472      16.06830609       7.29448007      -0.00055866      -0.00119499       0.00295352       0.34952170      -1.59165635       0.67011162      -3.37339071 F F F
 Cu            22.43615314      16.84127895      18.04519318      -0.00832160       0.00096013      -0.00511746       0.38427091      -0.03320986      -0.20788518      -4.01669768 F F F
 Ni            12.14530739       9.07813976      10.82633517       0.00353793       0.01111110       0.00058698      -0.53049682       0.09598865      -0.11494793      -5.21469037 F F F
 Ni            19.24051854       8.25875390      15.34117373      -0.00455416       0.00895006      -0.00477536       0.58540837      -0.09044565      -0.92001718      -6.25492971 F F F
 Ni            15.29912897      12.58704521      14.01887241      -0.00830189      -0.00472217       0.00288746       2.43030977       0.73106422       0.63846778      -5.82580312 F F F
 Cu            16.42122154      19.00498389      12.33823350       0.00087715       0.00025109       0.00517638       1.01086743      -0.84290912       1.27431469      -3.91631377 F F F
 Ni             9.25315516      18.45295680      12.13816441       0.00033945       0.00017812      -0.00344340      -0.28981093       0.75581156       2.90189994      -6.05173131 F F F
 Ni            10.56363386      15.89396638      21.39749607      -0.00034096       0.00834380      -0.00119302      -0.48091897       0.00645492       0.11236578      -6.08238062 F F F
 Cu            13.59822289      25.97202192      17.22815666       0.00464396       0.00148474       0.00144856       0.32635892       0.86909448       0.55764963      -2.99120410 F F F
 Cu            17.74566756       6.07790717      15.82694825       0.00073422       0.00407166       0.00383065       0.29089800       0.79671359      -0.22921661      -3.23706803 F F F
 Ni            20.09370827      22.40752731      11.38562673       0.00242185       0.00462436       0.00370187       1.57498877      -0.63420052      -0.31155262      -5.73504668 F F F
 Ni            20.07432237      23.58186577      14.89057319      -0.00889168      -0.00200660      -0.00604522       1.11278819       1.37541042       1.01261665      -5.58762924 F F F
 Cu            17.47458680      25.30123905      19.14235431      -0.00025621       0.00094154      -0.01013990       0.94830052      -0.45578056      -0.79238994      -3.01199054 F F F
 Cu            11.23646435      22.81719620      14.54275000      -0.00096213      -0.00892417       0.00476142      -0.08104549      -0.12786928      -1.22473043      -3.71569105 F F F
 Ni            13.53317806      17.60276508      18.48136969      -0.00276442       0.00505506      -0.00432893      -0.76334514      -0.58539231       1.29127643      -6.27378656 F F F
 Ni            10.68605650      10.78737617      10.00483938       0.00066493       0.00485242      -0.00206978      -0.21266315       1.24294602       0.06922048      -5.65011527 F F F
 Ni             8.53784742      16.47036365      13.19021034      -0.00203174       0.00267698      -0.00660069       0.57848357       1.42500757       0.11669381      -5.82140788 F F F
 Ni            15.05821749      19.45224241      18.92776910       0.00842563       0.00362072      -0.00192246      -0.53715017      -0.18543606      -0.47488896      -6.20629803 F F F
 Cu            12.57059993      22.37737447      22.55338021       0.00263326      -0.00336921       0.00555471      -0.88934020      -0.20628296      -0.20495694      -3.23314566 F F F
 Cu            20.56957342      19.65513847       8.07370873       0.00025229      -0.00989095      -0.00633592       0.12846253       1.61330409      -0.31775037      -2.82746899 F F F
 Cu            19.51444930      15.78185294      14.50352204      -0.00500102       0.00353219      -0.00169646       0.17012696      -0.48902460      -1.20399709      -3.82598372 F F F
 Cu            17.06658628      18.16248345       7.23384390       0.00046945      -0.00310933       0.00119886       1.00653410       2.98252731       1.13548398      -3.05718613 F F F
 Cu            12.45893515      13.41109644      25.03649993      -0.00255318      -0.00211237       0.00209164       0.43136494      -0.94873042       0.53448842      -3.10173790 F F F
 Ni            20.29894657      18.29285447      13.61953693       0.00258197       0.00655211       0.00220715      -0.30119207      -0.25541530       0.60287534      -6.07044018 F F F
 Ni            22.14084026      12.67676855      16.48790012       0.00439517      -0.00352726       0.00021375       0.57289979       0.26997597       0.23381688      -6.09387047 F F F
 Ni            15.80940226      18.91585927      14.63429159      -0.00393801      -0.00315927      -0.00727432       1.40886791      -0.24850399       0.18586658      -5.86212247 F F F
 Ni            10.98719767      18.32703854      14.16569776       0.00211895       0.00100812      -0.00460731      -0.51749235      -1.15713376       0.36346382      -6.18902707 F F F
 Cu            11.85479903       6.42329414      16.90617426       0.00074559      -0.00276010       0.01096278      -0.48754796       0.44778425      -1.04318086      -2.42923054 F F F
 Ni            19.51379749      14.69100016      12.13611718       0.00583700      -0.00090649      -0.00273674      -0.88870760      -0.07398074       0.45399036      -6.08110817 F F F
 Ni            25.72707739      13.92092016      17.70854100      -0.00788472       0.00924109       0.00615329      -0.48132469      -0.82650959      -0.39223864      -5.70999180 F F F
 Ni            12.56473720      19.91162505      14.83643668      -0.00717051      -0.00563428      -0.00390031      -1.09565917       0.69037286      -0.95145753      -5.95307249 F F F
 Ni             6.94489569      12.37469125      10.68582514      -0.00666547      -0.00239094      -0.00212820       0.42122820      -0.58605354       0.98367355      -4.66292676 F F F
 Ni            20.68715707       9.34041463      18.39022158       0.01161264      -0.00184165       0.00831868       0.38458044       1.21842639       0.99424436      -5.84463877 F F F
 Ni            17.70576931      17.04175896      20.19094139      -0.00277785      -0.00189440      -0.00084431      -0.60379072      -1.62350353       0.08113507      -5.84223037 F F F
 Ni             7.25583108      11.27647972      18.03077802       0.00524822       0.00105543      -0.00142297       1.88805094      -0.38720654      -2.27792701      -4.64612573 F F F
 Ni            19.86352609      24.51247880      12.54435905       0.00207300       0.00473049      -0.00530269      -0.90935720      -0.36989048       0.50763334      -5.29902449 F F F
 Cu            16.31358632      20.97484512      17.24291368       0.00251880      -0.00579232      -0.00175111      -0.01600045       0.93723587       1.03912668      -3.58074999 F F F
 Ni            14.13096674      15.70987626      10.72736170      -0.00224129       0.00926307       0.00294208      -0.58293035      -0.73262774      -0.66298355      -6.02858265 F F F
 Ni            16.77700955      16.55275142      16.26216005      -0.00679134       0.00470274      -0.00215954       1.79330087       1.59812079      -0.41074800      -6.00462355 F F F
 Cu            19.87725735       8.65085636      21.89343353      -0.00138062       0.00570611       0.00039462       0.02898692       0.69720761       0.02870948      -2.96090072 F F F
 Ni            16.41176765      11.81440028      11.84869090      -0.00774330      -0.00500083      -0.00214463      -0.18642608      -0.48082380       0.68516303      -5.85815839 F F F
 Ni            12.70940027      11.25242041      11.17230278       0.00094170       0.00405550       0.00212271      -0.16670226      -0.02844399      -0.11337718      -6.09026249 F F F
 Ni            24.91382169      16.03395308      18.05203740       0.00553807      -0.00748339      -0.00128636       0.52578357       1.79471604      -0.10833501      -5.62175810 F F F
 Ni            22.83045852       9.51389972      16.91320929       0.00037545       0.00813213       0.00045887      -0.72497641       3.23860228      -0.82223408      -5.21575609 F F F
 Cu            16.66110598      15.89748813      12.00432297      -0.00011289       0.00389703      -0.00123971      -0.63293134       0.41569825       0.21842089      -3.99335858 F F F
 Cu            14.11560770      22.58313900      20.18434083       0.00021883      -0.00683999       0.00487734      -1.82473711      -0.39930672       0.30067799      -3.50753836 F F F
 Ni            12.13494935      11.41832048      14.82658614       0.00512083       0.00993145       0.00389584      -0.18129407       0.38579765       2.90180646      -5.97528344 F F F
 Ni            24.12260190      11.48091754      17.63267330       0.00331254       0.00315285       0.00119024      -0.42715438       0.59079945       0.72967077      -5.86876705 F F F
 Ni            23.89450881      15.82468570      13.73075590       0.00040770       0.00035025      -0.00015173       0.58303643      -0.06316758       0.01727320      -6.11741442 F F F
 Ni            16.18369944      14.07878762      16.08020576      -0.00124344       0.01007599      -0.00409349      -0.07505979       0.59014379      -0.52497829      -6.02253411 F F F
 Cu            21.65259150      25.37041445      14.49633416       0.00082753      -0.00288806       0.00984172      -0.50345748      -0.98648506      -0.24783979      -2.50719650 F F F
 Cu            20.60293207      13.78788543       7.93160194      -0.00042345      -0.00285005      -0.00247606       1.67509700      -0.47940790       0.09761922      -3.11670159 F F F
 Ni            22.99870311      14.31444550      22.21005088       0.00082288       0.00576125       0.00083309       0.14022453       0.25605509      -0.68897685      -5.25185562 F F F
 Ni            13.99754045       9.46181366      22.36863739      -0.00184272       0.00651388       0.00557971      -0.29274969       0.43052904       0.37942325      -4.87857278 F F F
 Cu            15.31111973      10.76655207      25.50713372       0.00398338      -0.00324873      -0.00381453       0.35776889      -0.21652024      -0.50322343      -2.60928171 F F F
 Ni            19.10422836      10.32995331      12.12431364       0.00562147      -0.00186562       0.00043542      -0.25354098      -0.15940655       0.14653811      -6.22119023 F F F
 Ni            24.53268037      19.00202439      18.01347579       0.00966123       0.00533450      -0.00146008      -0.06421623       0.66184415       0.09372138      -5.38415771 F F F
 Cu             8.26761477      22.22305989      20.54539607       0.00386523       0.00316073      -0.00633341       0.56563003      -0.25353429      -0.51501380      -2.79291472 F F F
 Cu            13.37920886      24.46561705      21.50187948      -0.00007950       0.00307693       0.00307662      -1.38750012       1.23181747      -0.65345928      -2.43365682 F F F
 Cu            15.87590349      23.23962079      13.12838647      -0.00142033       0.00152150      -0.00360819      -0.13992226      -1.85405796      -1.80124110      -3.68785889 F F F
 Cu            15.17318561      23.40250224      22.20986039      -0.00207872       0.00002143      -0.00729535       0.45366998      -0.81128081       1.97879262      -2.92807447 F F F
 Cu             9.82539407      12.47046751      14.77184541      -0.00902046      -0.00105780       0.00189712       0.11735433      -0.17197381      -0.77570388      -3.87511641 F F F
 Ni            12.87442356      12.30553850       9.12545885       0.00133094       0.00294751      -0.00374256      -0.39491919      -0.58164244       0.26997127      -6.30115247 F F F
 Ni            13.85995216      18.05753417      21.04950458       0.00262612      -0.00039239       0.00099264      -0.61404081       0.57430602      -1.36282567      -6.06993036 F F F
 Ni            19.91266756      12.84695717      19.62790813       0.00255590      -0.00066674       0.00804628      -1.08580843      -0.33003017      -0.36783286      -5.85958201 F F F
 Ni            21.95961480      18.23227114      19.95946905      -0.00355759      -0.00547612       0.00697001       0.15766619      -0.35925354       0.06507681      -5.95912638 F F F
 Ni            19.84778791      10.49492292      20.25374813       0.00055598       0.00396800      -0.00294823      -0.33178389       0.26904065       0.54410090      -5.95114290 F F F
 Cu            18.47017835      14.72705494      19.49221277       0.00184593       0.00013248      -0.00427729       0.02588595       0.42336618       0.25184811      -4.32528389 F F F
 Cu            18.15002152       5.34440502      11.90308087      -0.00245753      -0.00527780      -0.00636816      -0.27989868      -0.40368964      -1.56341980      -2.00564340 F F F
 Cu            11.71785281      13.14647506       6.95804357      -0.00000286      -0.00224376       0.01199871       0.77449114      -0.18147528      -0.23473503      -3.17877780 F F F
 Ni            16.38200851      21.23574932      11.52757158       0.00143029      -0.00122455      -0.00242168      -0.38610194      -0.44520877       1.12647911      -5.96630793 F F F
 Cu            16.60934665      10.42635810      18.33885901      -0.00819848      -0.00510905      -0.00154383      -0.15578611      -0.06147892       0.03276682      -3.95646153 F F F
 Cu            16.11570902       5.56203377      17.87176922       0.00012670       0.00034375      -0.00719433      -0.29870090       0.38533720      -1.27396120      -2.74818387 F F F
 Ni             9.84006201      19.20944652      22.51717198      -0.00604687      -0.00018536      -0.00886492       0.84076608      -1.78625667      -0.01693005      -5.02316969 F F F
 Ni            13.46017091      11.87584391      13.23257094       0.00020534       0.00200544       0.00122594       0.33533082       0.95817077      -1.98955338      -5.79711121 F F F
 Cu             6.87096376      20.92818329      18.86746847       0.00147252       0.00264944      -0.00903163       0.98826584       0.81730485       0.36382919      -3.03294164 F F F
 Cu            15.38311709      12.88101784      18.43827765       0.00011101       0.00058482      -0.00356850      -0.67356711      -0.72579062      -2.76381708      -3.53437077 F F F
 Ni            16.09858134      18.47273830      20.85698712      -0.00485641      -0.00170658       0.00100607      -2.40877675       0.29543262      -0.68851441      -5.87142784 F F F
 Ni            18.06980378      22.54218073      12.26098948      -0.00374589      -0.00717715       0.00029012      -0.14119942       0.76606699       0.56728557      -6.14061567 F F F
 Cu            22.97150841       7.45952811      16.53128794      -0.00020255       0.00030691       0.00144674      -0.10188073      -2.34388156      -1.19975862      -2.88850371 F F F
 Ni            23.44989025      14.84219994      16.89096468      -0.00338491       0.00076461      -0.00279520      -1.59192560      -1.08066040       0.98803886      -5.81637790 F F F
 Ni            15.57575244       6.88216230      15.87928075       0.00835062      -0.00559694      -0.00084788       0.12832769       0.48020949      -0.86377725      -5.23461287 F F F
 Cu            18.70242802      13.79579473       6.49219313      -0.00225047      -0.00818570      -0.00148344       0.20306905       0.36656606      -0.71624054      -2.87904936 F F F
 Cu             6.11222438      17.64991232      15.59061209       0.00174190       0.00063337      -0.00120793      -1.49445507       0.14155561      -0.22788206      -2.94994916 F F F
 Ni            13.72046543      22.84838266      14.05201077      -0.00345440      -0.00557818       0.00504553       0.65579760      -0.64392586       1.14787703      -5.95284081 F F F
 Ni            11.70757054      14.65612685      23.32439483       0.00386206       0.00074943      -0.00092647       3.24438035       0.65892552      -3.82917082      -5.29506940 F F F
 Cu             4.58456305      14.83617725      15.79470512      -0.00200044       0.01113511      -0.00609153       1.05700091       0.09938076       0.21003054      -2.75168557 F F F
 Ni             9.66987080      22.33906355      12.62551725       0.00835788       0.00003328       0.00337272      -0.18511437       0.78653519      -0.06158588      -5.73122589 F F F
 Ni            22.05436446      13.75432166      10.19092959       0.00017751      -0.00377670       0.00191948       0.09589559       1.26031767      -0.28211513      -5.67457264 F F F
 Cu            17.91608793      14.13772350      25.54285402       0.00023589       0.00345789       0.00405204       1.29536297      -1.70557257       0.54121245      -2.84277492 F F F
 Ni            10.32101460      10.02570939      14.65427706       0.00138449      -0.00010141       0.00400367       1.91992559      -0.65921517       0.79283613      -5.57432417 F F F
 Cu            12.37610123      16.33218165      12.75402046      -0.01220672       0.00207904      -0.00554315       0.22217710       0.38265847      -0.21908951      -3.60185958 F F F
 Cu            19.03487499       9.90938049       9.70527619       0.00098727      -0.00012844      -0.00868813       0.04290426      -0.29823522      -0.20031845      -3.34124087 F F F
 Ni            25.22821501      15.49874336      15.79672135      -0.00103814      -0.00157583      -0.00280672       1.51797330      -0.67448127      -0.92580101      -5.82054870 F F F
 Cu            14.55290478      18.46838664       6.24787448      -0.00187128       0.00039273       0.00125714      -0.39300689       1.58825579      -0.23326562      -2.41995794 F F F
 Ni            10.33044234      19.87290968      20.25480256       0.00206637      -0.00454898       0.00024728      -2.97555309      -2.82990470      -0.29894522      -5.80066763 F F F
 Cu             9.05303693      24.41551619      18.96484303       0.00171515      -0.00176059       0.00002995       0.60007795      -0.56013204      -0.51921462      -2.63039312 F F F
 Cu             8.32508988      10.03437604      13.92292450      -0.00273677      -0.00043547      -0.00365749      -2.07899454      -1.57717425      -1.90499490      -3.01434945 F F F
 Ni            14.71123972      16.69807247       8.35833480       0.00220645      -0.00762123      -0.00620699      -1.15154812      -0.33838823       2.58191249      -5.66232720 F F F
 Cu            21.22266056       7.69291448      20.02094356      -0.00619968      -0.00620712      -0.00039195      -0.34352790       0.38337806       1.74035524      -3.06244715 F F F
 Ni            16.14015723      11.71294275      16.28111564      -0.00261068      -0.00685703      -0.00125348      -0.76363719      -0.65862844      -0.49408218      -6.15508728 F F F
 Ni            20.22679375       8.37153591      12.72673670      -0.00174262      -0.00250458       0.00672154       2.08787557       0.74788727       1.52422431      -5.48953282 F F F
 Ni            22.61312947      15.61770826      20.29515077       0.00515238       0.00583017       0.00096036      -0.13900769       0.68748804       0.47394682      -6.00717872 F F F
 Ni            10.23760944      11.49932952      19.44509379      -0.00303739       0.00071020       0.00320954       0.92892309       0.69076475       0.45302797      -5.68337959 F F F
 Cu            13.31322215       7.39098219      15.13799281      -0.00069273       0.00034382       0.00208722       1.07741071      -0.04942772      -1.24132613      -3.23108344 F F F
 Ni            10.46833897      21.02990110      16.15650863      -0.00372106      -0.00389639       0.00372287      -0.61554606      -0.94852360       0.39799524      -6.23841847 F F F
 Cu            19.45843355      17.98404791       7.29095289      -0.00230585       0.00125871      -0.00429447      -1.51201813      -1.11926865      -0.91666593      -3.02424186 F F F
 Ni            17.57336576      13.80690893       8.44366643      -0.00134895       0.00267639      -0.00255179       0.44104780       0.65233959       1.13099600      -5.37970289 F F F
 Cu             6.09732605      12.84105211      16.63831137       0.00046722       0.00171830       0.00172547      -0.90270504       0.97763590       0.70169738      -3.40831855 F F F
 Ni            12.32598871      13.72025975      11.35506587       0.00877541      -0.00488874      -0.00360660      -0.20510791       0.24609624       0.28594075      -6.20914556 F F F
 Ni            16.21737936      14.91338204      18.36593526      -0.00162146       0.00918589      -0.00430031       1.39924059       0.89337794       0.58819755      -5.90940745 F F F
 Cu            19.62542530      24.35748201      20.48497866      -0.00169704      -0.00237166       0.00206534      -0.87145114      -0.01439116      -0.06120604      -2.76332028 F F F
 Ni             7.59968727      20.20007183      16.69911199      -0.00360166      -0.00102074      -0.00283646      -3.24328211       1.64598022      -1.48952640      -5.56385483 F F F
 Ni            20.54095006      14.61280876      21.18143868       0.00633262      -0.00520952       0.00157379       0.88825638      -0.33920263      -0.42232824      -6.11708696 F F F
 Ni            23.79604440      17.30344635      15.88036713       0.00147086      -0.00572207      -0.00221558       0.29187626      -1.48338384      -0.00750872      -5.78984138 F F F
 Ni            14.48723503      19.61084393      11.17662471      -0.00231749      -0.01184078      -0.00150434       0.00298768       0.20641234      -1.20605324      -6.06488884 F F F
 Ni            12.62325349      21.82052636      16.10040343       0.00145421      -0.00345892      -0.00483076       0.41248413       0.81475052       0.76145137      -6.00022589 F F F
 Cu            18.44133105      19.75164160      14.22366678      -0.00005291      -0.00132567       0.00337780      -0.22336514      -1.75010308       0.29863788      -3.78714490 F F F
 Cu            13.02587557      18.38604549      24.29437406       0.00835548      -0.00398450      -0.00018861       1.66503653      -0.28385255       0.56444155      -2.93571951 F F F
 Ni            24.20896642      10.82044261      15.40727103      -0.00904032       0.00220278       0.00210697      -0.07216421      -0.52229663      -0.33766121      -5.48866109 F F F
 Cu            23.29700974       8.71650172      18.85975676      -0.00502683       0.00314578       0.00218050      -0.34134911      -0.17292900       1.72398041      -2.98789330 F F F
 Cu            16.46151010      20.76245475      22.89244442       0.00637617       0.00042450      -0.00359395       1.03615345      -0.35907614       0.03464856      -3.55286847 F F F
 Ni            10.82745214      17.40297141      10.96656835       0.00121718      -0.00059957       0.00980691       1.99118159       0.35209799      -0.25188477      -5.74492288 F F F
 Cu             9.95955448      24.66081285      12.41702411       0.00504210      -0.00671910       0.00648715       0.44662667      -0.20014366      -0.89331142      -2.88804123 F F F
 Ni            18.53483572      17.05422461      18.03735691      -0.00189843       0.00900128       0.00446228      -0.22597217       1.05466550      -0.62750457      -6.15809755 F F F
 Cu            16.59168408       6.17628800      19.91894821      -0.00111528      -0.00124030       0.00522118       0.37424471       1.42248152       1.29761694      -2.93879663 F F F
 Cu             9.83299132      23.44011496      16.25621614      -0.00016542      -0.00632831      -0.00421119       0.09984443      -0.48522271       1.98044265      -2.87320932 F F F
 Cu            13.76814479      15.08625626       5.82547300      -0.00266617       0.00067044      -0.00175110       0.19727536      -0.04125625       1.52038912      -2.70499342 F F F
 Cu            21.87292207      23.26561056      12.95259699      -0.00188815       0.00437367       0.00263031      -0.21992499      -0.86479418       0.12689908      -3.14007591 F F F
 Cu            16.02024311      17.53236357      10.30659424      -0.01022411       0.00031883       0.00545076      -0.09997604      -1.74771814       0.83844366      -3.63137614 F F F
 Cu             9.48394390      16.78683817      23.42437026      -0.00248845      -0.00470414      -0.00239960       0.24276949      -0.41946158      -0.51355490      -3.20956999 F F F
 Cu            10.42540848       8.68307631      17.00214425       0.00345032       0.00076607       0.00698981      -1.21110565      -0.43656254       0.27152433      -3.32425514 F F F
 Ni            12.56564959      12.41170349      18.60727441       0.00007264       0.00149150      -0.00444266       0.86505645      -0.90238767      -0.49462792      -6.17828333 F F F
 Ni            18.16473777      10.72998261      22.21965386      -0.00225416      -0.01028009       0.00341370       0.00523227      -2.02537599       0.12996434      -5.65712303 F F F