     480
 Properties=species:S:1:pos:R:3:velocities:R:3:forces:R:3:local_energy:R:1:fix_atoms:S:3 Lattice="31.6575874013       0.0000000000    0.0000000000    0.0000000000   31.4396548309    0.0000000000    0.0000000000    0.0000000000   31.8225730859" temperature=1273.55981923 pressure=-1495.19043445 time_step=1.0000 time=1000000.000000 energy=-2125.755370 energy_soap=-750.46900394  energy_2b=-940.19576688 energy_3b=0.00000000 energy_core_pot=-0.00034944 energy_vdw=0.00000000 energy_exp=0.00000000 energy_xps=0.00000000 virial="-87.80176921          2.28073920     18.85550914      2.28073920    -90.21937972     31.33343192     18.85550914     31.33343192    -68.35948188" stress="0.00277212           -0.00007201     -0.00059532     -0.00007201      0.00284845     -0.00098928     -0.00059532     -0.00098928      0.00215828" volume=31673.122212 step=1000000
 Cu             4.88745295      14.78177749      14.04400115      -0.00240567       0.00262990       0.00488087      -0.16521554      -0.57452539       0.99634219      -2.92550026 F F F
 Cu            16.27567387      17.70967924      24.74618354      -0.00836464      -0.00082549       0.00673067       0.13354636      -0.86037025      -0.10721570      -3.21550879 F F F
 Ni             8.55020030      21.50745608      11.65325761      -0.00208814       0.00636851      -0.00567857       0.78561822      -0.23209380      -0.36483880      -5.87285816 F F F
 Ni            11.77984271      12.64564098      10.62148390      -0.00154747      -0.00587813       0.00386047      -0.66384608       1.69016063       0.69048954      -5.97539789 F F F
 Cu            13.61889557      21.41217567       7.12324326      -0.00281194      -0.00149749      -0.00376398       0.12733480      -1.01168556      -0.74149774      -3.01205879 F F F
 Ni            19.43757235      21.66334693       9.72678142       0.00007862       0.00169128       0.00446551       0.55577475       1.62482387      -0.07126017      -5.46228246 F F F
 Ni            20.34907375      18.85852415      17.46014671       0.00298119       0.00122690       0.00407594      -0.19482346      -0.55410610      -0.46209559      -6.13915738 F F F
 Cu            10.28729280      11.67274795      16.22006306      -0.00207204      -0.00544455      -0.00508771       1.35971020      -0.71114694      -0.61198276      -3.87074557 F F F
 Cu            14.31209472      23.81004400      18.61577369      -0.00823633       0.00389321      -0.00126565      -2.45955690       3.51119947       0.61842511      -2.74267181 F F F
 Cu            13.74117933      11.23070244      17.77033636       0.00196575       0.00047643       0.00635733      -0.60973425       0.55697788       0.30618494      -3.75855602 F F F
 Cu            20.46343221      19.75772609       8.40315939       0.00300360      -0.00095610       0.00560417       0.63776743      -0.46592848       0.35110583      -3.15172129 F F F
 Ni            15.00577071      13.57994683      20.50776879       0.00227087       0.00526111      -0.00359393      -1.03344611      -0.25687177       0.01899341      -6.27450925 F F F
 Ni            24.88625348      17.57834539      18.20976952      -0.00439692      -0.00346206       0.00477237      -1.29701710      -0.15098023      -0.78806608      -5.68930998 F F F
 Cu            12.35526842      23.18251231       7.94610504       0.00231944       0.00275143      -0.00448756       0.65262610       0.76534178      -1.63161499      -2.47226112 F F F
 Cu            25.01586251      15.95630933      11.56070445      -0.00310619      -0.00280540       0.00257966       1.76994149       0.55743308      -0.04016920      -2.80527885 F F F
 Ni            21.00134746      17.56691813      22.95823133       0.00076025      -0.00474931      -0.00392365      -0.45064445       0.75606981      -0.02648425      -5.68695518 F F F
 Cu            14.10852316      24.80633618      10.17280577       0.00330649       0.00259433      -0.00244450       0.52452003      -0.34125557      -0.09714265      -2.90214104 F F F
 Ni            10.45338054      17.37327166      16.67428362      -0.00108207       0.00462887       0.00707354       2.31003595       0.85915227      -0.05749565      -5.83736819 F F F
 Cu            15.04035495      20.34392671      10.26633360      -0.00386593      -0.00505423      -0.00186855      -0.68418915       0.13911006      -0.15298428      -3.77718869 F F F
 Ni            18.55009126      10.51760971      13.37614399       0.00374522       0.00350054       0.00258464       0.34166161      -0.69113466       0.40595208      -6.01596900 F F F
 Cu            26.84579106      16.27316024      21.11777620      -0.00396486       0.00086900      -0.00579669       1.86974207      -0.10996461       0.44541992      -2.75868084 F F F
 Cu            14.13246913      22.44737358      23.71114807       0.00108944       0.00075451       0.00629657      -0.56511874      -0.72358500      -0.57237591      -2.63553513 F F F
 Cu            12.94442300      17.44468937      16.13868543       0.00906528      -0.00427241       0.00295681      -0.34676722      -0.58884663       0.18050267      -3.58006299 F F F
 Cu            16.41367277      22.28205506      23.19130629       0.00334987      -0.00618363       0.00449532       0.42620065       0.26375764      -0.22819977      -3.01316501 F F F
 Ni            16.70581802      16.67646313      12.64698470       0.00411127      -0.00746411      -0.00194812       2.10577326      -0.52955391      -2.17517937      -5.92062220 F F F
 Ni            19.34101909      15.75792910      12.61686707      -0.01021620       0.00433591      -0.00749077      -0.55590924      -4.76002685       0.44143137      -5.69039958 F F F
 Ni            14.87311275      21.99121026      17.80799819       0.00638074       0.00606472      -0.00000508       0.98724110      -3.09273974      -1.81691093      -5.86357867 F F F
 Cu            12.90906470      11.80098483      14.79490269       0.00189210       0.00388061      -0.00206048       1.01854444      -0.55902645       0.90016016      -3.39821999 F F F
 Ni            12.01527714      23.74563507       9.96593925      -0.00276853       0.00266170       0.00000326       0.07469519       0.19878462       1.95837306      -4.75253704 F F F
 Ni            25.47531892      10.42289992      13.76906037      -0.00185650       0.00244679       0.00782916       0.25165138      -0.21873067       0.81551462      -5.06651399 F F F
 Cu            26.65012681      20.16868183      14.84641441       0.00496626      -0.00240367      -0.00225218      -0.05089278       0.99079644       0.26652887      -2.65753178 F F F
 Cu            22.66930912      13.30927217       8.92471910       0.00136308      -0.00088535       0.00143599       2.42356455      -0.98114509       0.82202849      -3.09605904 F F F
 Ni            17.09538109      21.76630977       9.56064713      -0.00246204       0.00337495      -0.00809617      -0.53282362      -0.81200331       0.20950688      -5.61282771 F F F
 Ni            14.19380800      13.09847461       9.80745283       0.00540496      -0.00179724      -0.00310409       0.57715020       0.53306229       1.19680287      -5.73368843 F F F
 Cu            14.87216800      17.62716387       6.47945108      -0.00067119       0.00620250       0.00525515       1.08043208      -0.21743669      -0.69623435      -2.95910299 F F F
 Cu            25.86625308       8.49111295      15.57954098      -0.00194592       0.00193082      -0.00352201      -0.04776490       0.62477571      -0.56247447      -2.49559988 F F F
 Ni            26.24082280      14.01499795      21.92594157       0.00142829      -0.00532668       0.00030381       0.82264666       0.79100279      -0.59763313      -4.33063291 F F F
 Ni            21.86861130      19.97829337      15.87995562      -0.00609481       0.00140899      -0.00500301       0.36406229       0.66316845      -0.64552108      -6.23675572 F F F
 Ni            21.23670285      16.11077465      11.40154762      -0.00099133       0.00676365       0.00606969       0.77228483       0.17541619      -0.15371118      -5.81546929 F F F
 Ni            18.75869227      14.72414629      18.11100581      -0.00289835      -0.00349865      -0.00843418       1.28766443      -0.53827455      -0.61919638      -5.86434776 F F F
 Cu            25.91730599      12.39958969      17.87131109       0.00364804       0.00438186       0.00524622      -0.09563235       0.88722039       1.14343373      -3.16364393 F F F
 Cu             9.78618572      24.27554655      19.42235016       0.00490825       0.00602400       0.00196163      -0.51595090      -0.47925461      -0.33360820      -2.63016914 F F F
 Cu            12.40355477      16.72500172      10.89817152       0.00048067      -0.00046816      -0.00359073       0.26145527       0.04212090       0.67711743      -3.53275623 F F F
 Cu            21.46174810      21.12533341      23.35305018       0.00040632      -0.00506039       0.00498487       0.05848820      -0.19433633      -0.51479663      -2.92498590 F F F
 Cu            11.37115489       6.96343663      18.37483637      -0.00155622      -0.00147685       0.01009552      -0.09625853       0.86352889      -0.04215117      -2.87969295 F F F
 Ni            16.55710441      23.92696167      17.74335756      -0.00139070      -0.00396847      -0.00300353      -0.23397698      -0.49985449      -1.56038915      -5.63467049 F F F
 Ni             8.78413170      17.38368269      20.27336437      -0.00180859       0.00029636      -0.00122085      -0.06847684      -1.53189807       0.96464172      -6.01752589 F F F
 Ni            12.10325971       9.22331834      19.37193207      -0.00086394       0.00692841      -0.00660726       0.60611951      -0.00602327       0.28129587      -5.98074846 F F F
 Ni            13.61634457      19.81296908      17.72238626       0.00283591       0.00184171      -0.00333530       0.66509361      -0.12265685       1.27950281      -6.03521689 F F F
 Cu            10.53316842      23.08710934      11.82327231       0.00055296       0.00050732       0.00533132       0.57229495      -0.16703110       0.34380217      -3.32571605 F F F
 Ni            16.25367524       7.86430209      19.53231773      -0.00173215      -0.00235502      -0.00039744       0.58994856      -1.45555275      -0.08035426      -6.22387542 F F F
 Ni            18.30973085      11.77854573      19.38129598      -0.00101160       0.00024010       0.00057720       0.63626354       1.09659956       0.26872328      -6.18384758 F F F
 Ni            13.00732109      14.98159420       9.14635074       0.00868708       0.00583253       0.00252657      -0.04685300       0.11810192      -0.25704642      -6.06888581 F F F
 Ni            13.07322533      16.82725885      13.38641394      -0.00146304      -0.00206075      -0.00840044      -1.23863388      -0.17471670       0.07861480      -6.36383011 F F F
 Ni            25.83394290      19.28003741      16.87202616       0.00140911      -0.00118689       0.00265122      -0.21483699      -0.09373897       0.79543935      -4.94043351 F F F
 Ni            10.75695793      22.01207193      20.59307387       0.00728596       0.00291101       0.00232183       1.09234729      -0.60817611       0.49250201      -5.71415629 F F F
 Ni            13.01272295       8.76511472      10.70816998       0.00680251       0.00260208      -0.00115505       0.94616575       0.06299940      -0.31828046      -5.09670424 F F F
 Ni             7.28974463      15.07911015      17.21928452       0.00276513       0.00671558       0.00220391       1.43752121      -1.36130669       0.06498485      -5.89118275 F F F
 Cu            20.84404635      13.73503168      21.94721080       0.00043785       0.00008093       0.00088110       0.35422569      -0.51756729       0.50505531      -3.56534173 F F F
 Ni             9.93536763      14.87056218      16.92648528       0.00230009      -0.00504426      -0.00499213      -1.65008236       1.39779855       0.62296744      -6.25723467 F F F
 Ni            14.81548937       9.20995530      18.14507606       0.00801453      -0.00505144      -0.00118585       0.11027125      -0.83507832       0.26834941      -6.05410715 F F F
 Cu            17.32765210       6.24164438      11.30199359       0.00395331       0.00158744       0.00340924      -0.46499556       1.66584561      -0.34068110      -2.55776480 F F F
 Ni            15.49497615      14.03643822      17.93261879      -0.00120479      -0.00129424      -0.00094040      -1.87029223       2.72372779      -0.05608610      -6.12781351 F F F
 Ni            19.78976208      12.64281678      17.22177027      -0.00399802       0.00384439       0.00203188       0.73301571       0.06849212       0.62545585      -6.32188809 F F F
 Ni            12.71866029      21.24238994      21.68628752       0.00441073      -0.00274375       0.00086146       0.40316103       0.08788129       0.95471824      -5.84433139 F F F
 Ni            18.96931753      19.82523197      10.77857275      -0.00455057       0.00216697       0.00225069      -0.72943421      -1.02471916       1.17101159      -6.12157299 F F F
 Cu            22.42852784      11.65917267      23.18372358      -0.00127023      -0.00615844      -0.00169557       0.13068920       1.19719436      -0.97924687      -2.71511749 F F F
 Cu             9.18122607      19.81098607       6.94852866       0.00209347      -0.00363694       0.00472159      -0.47769309      -0.02867191       1.19497802      -2.82955908 F F F
 Ni            15.89755403      20.59280960       7.68042849       0.00214196       0.00236948      -0.00214435      -0.72688880       0.71793760       0.85168258      -5.24133687 F F F
 Ni             8.58699224      12.64560575      18.60978043       0.00406303       0.00286453       0.00371000      -0.24405114      -1.58827058      -1.06885920      -6.07109393 F F F
 Ni            17.45330017      21.88688234      18.71140316       0.00491102       0.00286002       0.00428114       1.36484472       0.43958691      -1.74870943      -6.19284294 F F F
 Ni            20.67145249       9.23152909      13.59223040       0.00003599       0.00054694       0.00182404      -0.93517736       0.14821942       0.07536072      -5.69339261 F F F
 Cu            23.45127127      20.78307960      21.46562367      -0.00759392       0.00264224      -0.00031705      -0.65669770      -0.75267692      -0.53608548      -2.90288795 F F F
 Cu            12.62839011      13.40492508      16.33956526      -0.00300437       0.00790107       0.00477459       0.40898874       0.32688332       2.13350344      -3.60805008 F F F
 Ni            21.96899808      15.49887867       9.24112488       0.00087319      -0.00253157      -0.00032167      -2.31024372       0.89102339      -2.01035145      -5.19047107 F F F
 Ni            12.55381809      17.58934124      18.52516844       0.00052000      -0.00734810       0.00236587      -0.80886879       0.24020218       0.70020490      -5.90735617 F F F
 Cu            10.97469755      21.47424864       7.25434692      -0.00511088      -0.00157751       0.00762875      -0.35070166       1.19809278      -0.24972963      -2.65362296 F F F
 Ni            13.96025619      11.72799363      12.59715660       0.00555721      -0.00048736      -0.00686805      -0.79011196      -0.30842899      -0.24105997      -6.01689666 F F F
 Ni            17.57453089       8.39874966      17.18162112       0.00219619       0.00034095       0.00283818      -0.31859105      -0.53830184       0.61032381      -6.14071516 F F F
 Cu            20.86618603      11.38937201      20.96642174       0.00040329       0.00226471      -0.00220034       0.48045595       0.30783556       1.98476472      -3.27049256 F F F
 Cu            10.66446339       9.11763665      10.60766966       0.00353111      -0.00229319       0.00030825      -0.74422138      -0.29391464      -0.33003374      -2.86806895 F F F
 Cu            19.61706360       6.66622699      16.24971494       0.00381962      -0.00079187      -0.00155626      -0.35700993      -0.07917211      -0.75615492      -3.27632780 F F F
 Cu            10.22393062      17.81371950      11.39251313       0.00444465       0.00316980      -0.00167439       0.05675472       0.29554990      -0.67268534      -3.56992911 F F F
 Cu            19.25871638      15.57419223      23.01804741      -0.00136734       0.00480540       0.00096598      -0.07131217      -0.46007825       0.68767713      -3.40026182 F F F
 Ni            18.94424214      17.43994748      11.48692912       0.00280833       0.00375450      -0.00100721      -1.24740304       2.41728450      -2.52762968      -5.80615657 F F F
 Ni            20.22218876       8.41431660      17.62170460       0.00271904       0.00434331       0.00829398      -0.07680095      -0.22590020       0.16920824      -5.77658860 F F F
 Ni            13.06870812      21.77595570      19.48906233      -0.00165218       0.00682798      -0.00173135       1.75321841      -1.74109646      -0.28928787      -5.78039579 F F F
 Ni            15.48395206      15.71136670      23.65261409       0.00236308      -0.00186802       0.00941969       1.04131155       1.97532951      -0.33439960      -5.39036252 F F F
 Ni            10.75145103      19.88189452      22.13588199      -0.00507716      -0.00096094      -0.00315654       0.03374322       1.36974568       0.25704103      -5.62357260 F F F
 Cu            13.53115480       5.27560732      19.00362884      -0.00066610      -0.00301590       0.00135457      -0.66714475      -2.37856393      -0.40821731      -2.55464286 F F F
 Cu             8.90773196      15.66258453       7.31677256       0.00028419       0.00174716       0.00314062       0.19608612       0.43892061       1.10684669      -2.50993104 F F F
 Cu            11.78582443      19.54526651      20.09639437       0.00444092      -0.00232983       0.00099128       1.37301928      -0.64868190      -0.00452786      -4.10216743 F F F
 Ni            17.67216342      21.38758752      20.94492636      -0.00030950      -0.00053162      -0.00755517       0.08355893      -0.89251065       0.27197353      -6.08920512 F F F
 Cu             6.91530403      11.43112183      14.73173533      -0.00118810      -0.00412583       0.00301275       0.26194149       0.65557623      -1.45937645      -2.97640883 F F F
 Cu            23.08061449      16.20490671      21.24751696      -0.00747958      -0.00122742      -0.00543724      -2.59267256       0.39030882       2.20483322      -3.35060283 F F F
 Ni            13.11492694      21.53342188      16.06100587       0.00072189       0.00363874       0.00020135       1.11802983       0.35241839       0.07692664      -6.02118621 F F F
 Ni            17.49907579      12.84126094      17.52885664      -0.00007678       0.00369468      -0.00375633       1.32089654       1.37035110      -2.88992286      -5.69150943 F F F
 Cu            14.45404888      10.91108529      20.19106441      -0.00003482       0.00492503       0.00016649      -0.52377185       0.23698212      -0.60140840      -3.72231722 F F F
 Cu            16.54844780      11.91665549      12.75544580      -0.00248979      -0.00606618      -0.00177385       0.12983450      -0.22718187       0.43672772      -3.87871850 F F F
 Ni            25.60807793      18.39381552      14.07482538      -0.00144921       0.00195713      -0.00574990      -0.73241359      -1.49536690       0.25697702      -4.73588310 F F F
 Ni            12.58879079      21.23220578       9.23704218       0.00013699      -0.00287310       0.00215424      -0.94211341      -0.79064363       0.91215885      -5.91288003 F F F
 Cu            11.47756124      10.18986066      14.08256695      -0.00546072       0.00335577       0.00111566      -0.13680503      -0.56604389       0.12487135      -3.52631811 F F F
 Ni            11.91507776      19.10444839       9.88225515       0.00819482       0.00418881      -0.00265954      -1.20374100       1.96351376       1.22218792      -5.85139172 F F F
 Ni            18.06819176      23.18457750      11.21126841       0.00242052       0.00322570       0.00207539      -0.18063905      -0.55342420       0.76926816      -5.48157228 F F F
 Cu            14.40334430      19.06387865      24.45344265      -0.00137496      -0.00601618       0.00002907       1.03472485       1.01993838      -0.07885010      -3.07172957 F F F
 Cu            14.68934998       6.03397005      15.07666261       0.00078517       0.00695672      -0.00467182       0.22079231      -1.29169218      -0.43256967      -2.69900815 F F F
 Ni            11.41500268      11.19529760      18.15149218       0.00095619       0.00263912      -0.00111218       0.39864587       0.05729816       0.15218747      -5.52297858 F F F
 Ni            21.23973678      20.47860493      10.67362056       0.00228844      -0.00253658       0.00226758      -1.72579910       1.62342781       0.48351657      -5.35309740 F F F
 Cu            15.86796376      22.15240337      11.62482401       0.00401852       0.00078443      -0.00088417      -0.51038454       1.43557272      -1.10020132      -3.48918414 F F F
 Ni            11.43265415      19.39939874       7.18725059      -0.00377893      -0.00738478      -0.00348553       1.13664159       0.08450310       1.12518593      -5.17180336 F F F
 Ni            14.63920377      16.78990807       8.58284343       0.00039139      -0.00388890       0.00212651      -0.09814157      -0.37774226       0.09249776      -5.82408304 F F F
 Cu             4.57710612      19.60589143      15.85863277      -0.00362206      -0.00803026      -0.00180998       0.89979157      -0.19529977      -0.17821229      -2.72889044 F F F
 Ni            16.59599117      14.08369053      22.25206837       0.00185544       0.00726956      -0.00018761      -0.32175797       0.96913130      -0.37370783      -6.17815445 F F F
 Cu             8.13536980      23.30950315      14.43332229      -0.00169875      -0.00332514       0.00044147      -0.20127763       0.18540988      -0.98787003      -2.79795983 F F F
 Cu            23.85263429      12.14162339      13.35885060       0.00124765       0.00121874       0.00058626       0.35722119       0.94518456       0.24142818      -3.81467854 F F F
 Ni            22.48883701       8.95161453      17.91184381       0.00045381      -0.00097587      -0.00171505       0.08037800      -0.79202702      -1.19330468      -5.61664368 F F F
 Cu            20.16617137      24.62105607      20.56111262      -0.00166985       0.00162876      -0.00371728       0.04681792      -0.60649265      -0.26207296      -2.69721121 F F F
 Ni            13.29952094      22.10721719      11.58503940       0.00154619       0.00625849       0.00012160      -0.78800127       0.50967263       0.06942582      -6.25493982 F F F
 Cu            18.26021535      20.23671073       8.11258090       0.00769157      -0.00285109       0.00615844      -0.77003162       0.23444934      -0.48756820      -3.37555488 F F F
 Cu             8.17297538      10.82048893      16.55040745       0.00236549      -0.00016213      -0.00177197      -0.41923455      -1.26768958       1.33444370      -3.33609777 F F F
 Ni             9.30361080      12.36534027      13.83011741       0.00241959       0.00307966      -0.00815487      -0.89866776      -0.15882946      -0.18589357      -6.26584376 F F F
 Cu            10.56618717      24.81331851      13.74850371       0.00914249       0.00258278       0.00621884       0.00855737      -0.88976627      -0.04102200      -2.74553376 F F F
 Ni            11.46740303       9.08313260      16.80052244       0.00964505       0.00034409      -0.00974594       0.55448841      -0.08822605       1.03851575      -6.15419271 F F F
 Ni             9.23352646      20.05489628      19.90715483       0.00625771      -0.00514838      -0.00614491       1.19458472      -0.25844276       0.15506989      -5.97617865 F F F
 Ni            13.10928170      13.33168067      18.87619166      -0.00299183       0.00287075      -0.00936576       0.39156144      -0.48952808      -0.76566141      -5.85949302 F F F
 Ni            18.97625119      17.05443264      16.59091454      -0.00264740      -0.00754794      -0.00025248      -0.12169819      -1.14014806       0.18126746      -6.04937123 F F F
 Cu             5.57560836      18.07446789      17.79751423       0.00032630       0.00523499      -0.00263144      -1.52009349       1.66696534      -1.29794357      -3.32712700 F F F
 Ni            11.23487792      20.92093169      18.34005806      -0.00017053      -0.00149775      -0.00156665       0.48191284      -0.02187884      -0.92729291      -6.15267551 F F F
 Cu            17.20636801       6.02472313      15.86466522      -0.00112004       0.00374141       0.00570712      -0.21929318       0.64445916      -0.15703144      -3.05372513 F F F
 Ni            15.08617039      10.58195218      14.72861573       0.00499965       0.00168690       0.00427276      -0.42833415       0.75050180      -1.26460257      -5.98937322 F F F
 Cu            12.77863738      12.69717672       7.98487255      -0.00093675      -0.00154167      -0.00423585      -0.11616499       0.73518000      -0.23500371      -3.07781731 F F F
 Ni            10.84085080      21.67569238      16.04206502       0.00298826      -0.00484410       0.00707788      -0.44302510      -0.62035646       1.62068825      -5.46965907 F F F
 Ni            11.12090955      20.65438658      11.46202975      -0.00021857      -0.00008316      -0.00031180      -0.74364171       0.88754760      -1.39415795      -5.98707854 F F F
 Cu             7.71376750      18.81947316      11.19932830      -0.00436006       0.00411805      -0.00103107       0.67765825      -0.50775562       0.25958377      -3.55532539 F F F
 Ni            22.42660225      14.00037310      20.22280721       0.00552602      -0.00060035      -0.00877595       0.43525393      -0.11215264      -0.26984213      -6.06786364 F F F
 Ni            14.18655198      23.10048757      21.23180435      -0.00257858      -0.00123537       0.00495382      -0.73891233      -0.74809833       0.28494566      -5.44897263 F F F
 Ni             9.19950892      19.27355310      15.02294302      -0.00204783      -0.00030463      -0.00052553       0.84671819      -0.51679200       1.47707678      -5.72568479 F F F
 Ni            15.15110299      20.28820179      15.85579021      -0.00045459      -0.00488905      -0.00954266      -0.78106051       0.06009529       0.89490308      -5.98856251 F F F
 Ni            17.34934589      10.51202999       8.77531410      -0.00019503      -0.00808521       0.00952477      -0.24189561       1.50025200       0.19136689      -4.83491198 F F F
 Cu            15.61267784      21.78888508      13.91635639      -0.00517116      -0.00580119       0.00801582      -0.24649926       0.65889512       0.16100758      -3.54287713 F F F
 Cu            22.61142907       9.85414960      19.93319403       0.00095504      -0.00385682       0.00169658      -0.01804450       0.47493330       1.37509885      -3.30433632 F F F
 Ni            13.88847043       9.28110215      12.72101670      -0.00012591      -0.00142170       0.00203792       0.77361510       0.56543575       0.92620566      -6.21532427 F F F
 Cu             7.18018838      18.48948697      14.09274900      -0.00018966       0.00003199      -0.00450853       0.00215759      -0.01687670      -0.65152930      -4.01393199 F F F
 Cu            24.70735373       9.40781510      18.70201596       0.00493091      -0.00227852       0.00318159       0.58988930      -0.51352762      -0.23372154      -2.85502988 F F F
 Ni             6.47170496      16.54076144      19.02572207       0.00494600      -0.00374267       0.00406572       0.81927254      -2.16537879       0.70874222      -5.55576064 F F F
 Cu            12.13725878       6.91893637      20.55724039       0.00262100       0.00392554       0.00901186      -0.56361712       0.19004925       0.99447687      -2.75357689 F F F
 Ni            17.90251918      18.51447368      18.29274580      -0.00657915      -0.00259053       0.00188364       1.15170102      -0.52369908       0.90454141      -5.52840884 F F F
 Cu            22.43351627      22.31110228      14.73937687      -0.00080797       0.00330547      -0.00533972       0.46566145      -0.91014040      -0.12154051      -3.07034749 F F F
 Cu            16.88542344      19.05628521       6.29175963      -0.00643994      -0.00537776      -0.00227780       0.16653501      -0.75650271       0.30649836      -2.62743446 F F F
 Cu            23.54744017      17.37704799      12.61344374      -0.00034028      -0.00609151      -0.00437705      -0.90846024       0.55849923       2.90438747      -2.94971277 F F F
 Cu             9.45255455      13.77692502       9.28008095      -0.00747455      -0.00626246       0.00653493      -1.01098511      -0.82731162      -0.33422711      -3.00673701 F F F
 Cu            15.15943866       7.93848911      16.00765573      -0.00338809      -0.00113232       0.00251440       0.95780130       0.50784446       0.52029002      -3.21865964 F F F
 Cu            20.81736573      15.37007490       7.06787148       0.00547502      -0.00157298      -0.00292390      -0.41489545      -0.02980683      -0.17687760      -2.96403168 F F F
 Cu            17.34348275      16.77350960      21.74963395       0.00885153       0.00402118       0.00067608      -0.26272968      -0.29004196       1.50229492      -3.32284059 F F F
 Ni            20.41429549      22.44064624      21.73821641      -0.00319353      -0.00042413       0.00462287       0.59859833      -1.11021922       0.22967298      -4.97314559 F F F
 Ni            19.66941417      19.25820148      15.09341840       0.00024662      -0.00106631       0.00809005       1.02455220      -1.21106728       0.52320787      -6.01326779 F F F