     480
 Properties=species:S:1:pos:R:3:velocities:R:3:forces:R:3:local_energy:R:1:fix_atoms:S:3 Lattice="31.6575874013       0.0000000000    0.0000000000    0.0000000000   31.4396548309    0.0000000000    0.0000000000    0.0000000000   31.8225730859" temperature=1275.94661163 pressure=1627.65174916 time_step=1.0000 time=2000000.000000 energy=-2136.436485 energy_soap=-751.26779111  energy_2b=-950.06994668 energy_3b=0.00000000 energy_core_pot=-0.00849788 energy_vdw=0.00000000 energy_exp=0.00000000 energy_xps=0.00000000 virial="-30.44137746         -1.21612276     11.58649553     -1.21612276    -36.57001016     21.10613291     11.58649553     21.10613291      5.53980170" stress="0.00096111            0.00003840     -0.00036581      0.00003840      0.00115461     -0.00066637     -0.00036581     -0.00066637     -0.00017491" volume=31673.122212 step=2000000
 Cu            10.99562860       8.90733532       9.68698128      -0.00082896       0.00446513       0.00822517      -0.84806779       0.70094131       0.23527464      -2.97730704 F F F
 Cu            13.21075053      13.05759900      23.12920017      -0.00796015       0.00526605       0.00377692       0.29903422       0.37435252       0.61342831      -3.79874311 F F F
 Ni            21.17331695      11.60080506      20.10081054       0.00002586       0.00250503      -0.00533913       0.72721110      -0.46164699      -0.99249993      -5.77038666 F F F
 Ni            12.62109330      17.95792723      10.45603479       0.00107679       0.00178494       0.01249769       0.50718343      -0.10763943       0.10510602      -6.39897415 F F F
 Cu            12.47867745      17.28349478      24.34011221       0.00113746       0.00236014      -0.00150956      -1.16720533      -0.09834316      -0.43483702      -3.26697165 F F F
 Ni            12.96079681       9.90968900       9.12131693       0.00420335      -0.00453328      -0.00249213       0.62361627       1.38520105       0.41089698      -5.40112399 F F F
 Ni             9.49657951      10.78498212      21.93087526      -0.00063040       0.00284776       0.00422124       1.02825407      -2.23824198       0.54805616      -5.55041872 F F F
 Cu            25.24331470      14.47787004      14.90726703       0.00240297       0.00011060       0.00004075      -0.40194339      -0.24540604       0.66113430      -3.11469524 F F F
 Cu            21.23302700       8.62299971      15.74310048       0.00470236      -0.00134772      -0.00344575      -0.44282597       0.51888860       0.92373187      -2.69627452 F F F
 Cu            11.39600546      10.36937142      24.22608740      -0.00583747       0.00618852       0.00734738      -1.58954644      -2.30125821      -1.48984312      -3.15770503 F F F
 Cu            13.41834606      10.57929646      17.90618266      -0.00022667       0.00106140       0.00146170       1.84980569      -0.70711954      -0.40909382      -3.58729143 F F F
 Ni            10.46829781      21.06568897      18.08982443      -0.00147709      -0.00204779       0.00102849      -0.00784461       1.84110730      -0.20512735      -5.77609409 F F F
 Ni            14.28658458       9.31172511      22.39045146      -0.00352507       0.00979940      -0.00093043       1.05522274       0.37893110       1.31703678      -5.37975995 F F F
 Cu            24.50211584      22.96548562      17.56914045      -0.00220244       0.00454646       0.00304598      -0.38493350      -0.77921098      -0.47153910      -2.47789535 F F F
 Cu            11.41060251      10.29867136      13.61801290      -0.00191185      -0.00004385       0.00037628       0.82979283      -0.01113547       0.76990229      -3.80349741 F F F
 Ni            22.12024250      13.39786006      18.04387979      -0.00013193       0.00110542      -0.00481881       1.28917678      -0.31338381       0.23315485      -6.13425213 F F F
 Cu            12.32962696      23.41405912      10.71230225       0.00523287       0.00776595      -0.00085052       0.19708295      -0.58302966       0.61451750      -2.71980004 F F F
 Ni            13.71294082       6.47995052      17.58714496      -0.00159703       0.00249849       0.00028550      -0.72712225      -0.61714251      -0.53079923      -5.42637706 F F F
 Cu            12.01948722      24.66181860      19.78364982      -0.00394022      -0.00208872       0.00388780       0.69271742       0.55039341       0.87478509      -2.70624179 F F F
 Ni            17.76326471       7.67243976      14.16135730       0.00636463      -0.00522903       0.00273068       1.02912408      -0.03016874      -0.03304373      -5.33204133 F F F
 Cu            15.91954404      19.89664751      25.70350836       0.00278489      -0.00015753      -0.00407633      -0.09756614       0.82117952       1.30291458      -2.67763056 F F F
 Cu            11.01389852       6.19451236      17.68623818       0.00249197      -0.01470836      -0.00341332       0.61508881       0.59155669       0.10858169      -2.35469005 F F F
 Cu            24.60438119      14.78429629      21.32829154      -0.00155194       0.00274318       0.00061913       2.37201736      -0.16569792      -1.04377651      -2.91421384 F F F
 Cu            20.20728827      18.37960414       6.53972400      -0.00206517      -0.00207157      -0.00214322      -0.51316409      -1.21613201      -0.12450695      -2.56029679 F F F
 Ni            17.70595360      18.63764469      14.86827900       0.00027575       0.00365957      -0.00227705       0.82705541       0.23106782       3.80363006      -5.98338752 F F F
 Ni            14.22704203      13.87457487      11.43865739       0.00506543      -0.00085175       0.00269547       0.33272295       2.09658269      -0.35049502      -6.04403240 F F F
 Ni            18.37929674       6.96875728      19.16084139       0.00916621      -0.00210292       0.00655390      -0.07563209      -0.93493230      -0.49312379      -4.61166845 F F F
 Cu            15.45242847      10.13350187      19.48583284       0.00546068      -0.00353825      -0.00055743      -2.84746289       1.72674358      -1.13144501      -3.29037408 F F F
 Ni            16.30995171      12.49347345      10.75430168       0.00529969      -0.00393602      -0.00307641      -1.40159050      -0.42085280      -1.44495379      -5.65687451 F F F
 Ni            20.80096554      13.09936845      21.66973340       0.00047730       0.00395032       0.00447241       2.59779851       1.47728470       0.01747684      -5.61118860 F F F
 Cu            17.14816197       9.56843481       7.62759569      -0.00408862       0.00322272       0.00119354      -1.14595790       0.68041146       0.31665253      -2.70646346 F F F
 Cu            13.86286738      16.86168684      27.20012212       0.00330494       0.00175368      -0.00093987       0.03631134       0.52593413      -0.51446591      -2.38530607 F F F
 Ni            19.19232297      16.37708602      23.23982347       0.00727165      -0.00486558       0.00689367       0.22078183       0.18327316       0.61977769      -5.86753231 F F F
 Ni            20.01878409      19.10892988       9.10976463      -0.00319168      -0.00218854       0.00061411      -1.91882818      -0.61903230       1.61727586      -5.77091826 F F F
 Cu            10.44207696      23.77142540      18.46775073       0.00603127      -0.00354573       0.01070161      -0.78630000      -0.28758896      -0.75130000      -2.97646665 F F F
 Cu            18.10125240       5.55217681      17.20700918      -0.00311548      -0.00255772       0.00095872       0.36271187       0.06507733       0.10488370      -2.85512859 F F F
 Ni            18.18777093      19.01103046      11.12071845       0.00285526       0.00404872       0.00248228       0.10029747       0.23383421      -0.95412319      -6.02035708 F F F
 Ni             9.93270606      17.23917829      11.81941079      -0.00192172      -0.00758600       0.00765166       1.05851948       0.21032742      -4.51273702      -5.74034061 F F F
 Ni            12.25163854      20.41669472      10.45311378      -0.00142757       0.00364735       0.00339165       0.46045803       0.43611320      -0.07432678      -5.77886903 F F F
 Ni            17.76209043      14.70679605      24.00721465      -0.00056112       0.00465962      -0.00091532       1.42761981      -0.15358982      -0.87662179      -5.82624219 F F F
 Cu            14.44111544      24.76834737      15.99619712      -0.01030979      -0.00437187      -0.00268418       1.50607687       0.43228058      -0.92161003      -3.47591611 F F F
 Cu            15.34672004      14.62112549      22.79458702       0.00018408      -0.00399676       0.00269183      -2.00913284       0.81821910       0.34597247      -3.53665358 F F F
 Cu            10.33511893      19.97674277      20.55152769       0.00409826      -0.00038371      -0.00165650      -1.40050557      -0.16906852      -0.43609856      -3.47074782 F F F
 Cu            13.38511789      21.63944467      12.09416446       0.00352966      -0.00567870      -0.00545708      -1.87663995       0.32749996       0.12280033      -3.76794216 F F F
 Cu            20.67751174      11.47580011       7.91938433       0.00237802      -0.00255519       0.00373362       0.86809290       1.19834481      -0.10518082      -2.89427100 F F F
 Ni            12.54840603      14.89109949      13.52665071      -0.00075438      -0.00251141       0.00394326       0.19085122      -1.40842767      -0.89456201      -6.17434211 F F F
 Ni            15.73510183      18.63560255      16.36166118       0.00464744       0.00145597       0.00096964       0.80490100      -1.03589337       0.84021772      -6.39474617 F F F
 Ni            17.64908313      11.33815309      16.64698036       0.00289779       0.00026583      -0.00549440       4.14686767      -1.84735772      -1.19614050      -5.70775419 F F F
 Ni            18.73658416       9.41088817      15.20004448      -0.00250066      -0.00270736       0.00116649      -0.15733189       0.42756074      -0.10280390      -5.94060473 F F F
 Cu            22.21974257      13.23361505       9.45100100      -0.00187271       0.00221687      -0.00261697       0.85115073       0.13636866       0.10753347      -3.36547366 F F F
 Ni            11.47937541      19.12118480      12.15099965      -0.00384187      -0.00107178       0.00785018      -0.70154019      -0.05587881      -0.30741422      -5.81729115 F F F
 Ni            14.39514264      15.80875161       9.66602589       0.00211692       0.00201988      -0.00127993      -0.91054803       0.12171006      -0.55779552      -5.83709972 F F F
 Ni             8.80662908      14.43316120      20.14618817       0.00184403       0.00217986       0.00093123       1.36710365      -0.42087701       1.64969702      -5.92530353 F F F
 Ni            12.67931231      10.91353232      22.13928927      -0.00735123      -0.00205439      -0.00252351      -2.04898462       0.03048359       0.14106565      -5.87715035 F F F
 Ni            16.70335194      13.18350903      15.62986938      -0.00152404       0.00101220      -0.00330590       0.43087785       0.94621495       0.19934712      -6.05041535 F F F
 Ni             8.90873719      20.58448993      16.33554672      -0.00200933       0.00559992       0.00185502       0.68459673      -0.18130653       0.86469505      -6.11631962 F F F
 Ni            11.75224951      12.29404674      25.01321940      -0.00212838       0.00508193       0.00417678       0.22640651       2.25998541       0.22789962      -4.61100570 F F F
 Ni             5.43068622      18.68190645      13.88455333       0.00068048      -0.00970752       0.00410844      -0.67328945       0.26856250      -0.45848925      -4.75818437 F F F
 Cu            24.41257269      10.45585635      17.03985626       0.00524993      -0.00383073       0.00293867      -0.16058314       0.07644005       0.18965333      -2.44619797 F F F
 Ni            16.47108569      16.58225530      23.92902792      -0.00539407      -0.00409487      -0.00498311       0.50801686       0.69527539       0.32448994      -6.31832938 F F F
 Ni            16.45767433      19.01478091       6.92770499       0.00076088       0.00394683      -0.00735647       0.19671240      -0.45706736      -0.38065536      -5.25865401 F F F
 Cu             8.57539383      21.97451119      12.62251484       0.00011057      -0.00383667      -0.00297008       0.58084902      -0.44733608       0.07304006      -2.74842319 F F F
 Ni            19.53824320      13.37350170      12.72732706       0.00038215       0.00207678      -0.00261826      -2.84469373      -0.03718459      -1.23507333      -5.65124749 F F F
 Ni            10.13820708      12.62759819      13.55943046       0.00087929      -0.00421003       0.00286660       0.00553515       0.72774494      -0.38703308      -6.14174795 F F F
 Ni            12.00798855      15.66621291      11.15444248       0.00393733      -0.00120386       0.00269330       0.69020989       1.12840219       0.62091107      -5.94400682 F F F
 Ni            11.71338034      13.49606817      11.67775090      -0.00087374      -0.00471287      -0.00860437      -0.01220129      -0.51338758       0.87780162      -6.27302491 F F F
 Cu             9.49288235      21.27396678      10.42462859       0.01163308      -0.00001421       0.00074788      -0.30877766       0.32787248       1.03256300      -2.92912507 F F F
 Cu            11.62583576       8.37752553      11.92263086      -0.00463683       0.00120214      -0.00044588      -1.12325481      -0.61660972       0.40929980      -2.99641584 F F F
 Ni            19.15232036       8.89363670      11.29835496       0.00166819       0.00433078      -0.00130012       3.41995103      -0.11551976      -3.90549251      -4.72500952 F F F
 Ni            10.47641467      11.34326524      15.74350714       0.00757248      -0.00046470      -0.00342617       1.52355557       1.27811001       0.68778580      -6.11514354 F F F
 Ni            13.93781338      20.93649464      19.53667039       0.00369121       0.00192093      -0.00909880       0.85622177      -0.94287226      -1.00577158      -6.03005297 F F F
 Ni            16.82652503      22.48401324      12.86467833      -0.00683694      -0.00236005      -0.00003109       0.93074544       0.86530800       0.59526445      -5.70334915 F F F
 Cu             7.81182977      19.85560389      21.02958068       0.00199692      -0.00419990       0.00545365       0.38696167      -0.51874907       0.64143932      -2.78363145 F F F
 Cu            19.19948213      18.93002512      18.59250821       0.00001696      -0.00551311      -0.00415103       1.49309703      -0.50717019       0.09917615      -4.01541689 F F F
 Ni            22.08303954      18.03094060      12.89563371       0.00041274       0.00442526       0.00305496       0.30520440       1.42653659       1.00826244      -5.83032668 F F F
 Ni            11.71936031      15.52605330      17.52366605      -0.00065004      -0.00239049       0.00169077      -0.31036252      -1.23556732      -0.62745620      -6.13238361 F F F
 Cu            18.91071829      12.25125562      20.62898600       0.00408718       0.00560178      -0.00166338      -0.89893508       0.55868100      -1.51102472      -3.93086041 F F F
 Ni            18.33419787      19.76789777      20.84586281       0.00192816      -0.00126309       0.00235750       0.72934618      -0.93366825       0.98537016      -5.93056732 F F F
 Ni            19.16134261      16.25855615      15.56536728      -0.00179384       0.00300408      -0.00481780      -0.60234134       0.76711850      -0.52763168      -6.12846284 F F F
 Cu            20.87293580      14.68348561      14.01275077       0.00657260       0.00331347      -0.00632648      -0.48664427       0.26964382       1.24867274      -3.97785559 F F F
 Cu            16.07121460      22.32048651      19.62206450      -0.00103717      -0.00361609       0.00220471       1.06809223      -1.63185912       1.10981350      -3.51355103 F F F
 Cu             6.63571733      11.40864431      15.08987750      -0.00061646      -0.01376579       0.00062245       1.19561043      -1.68511529       0.89818306      -2.74203007 F F F
 Cu            13.90757049      13.12255507      25.81692361       0.00307769      -0.00486142      -0.00422889      -0.27664395      -0.21879266      -0.62875682      -3.06692490 F F F
 Cu            14.83305702      21.36693039      23.82393953       0.00270902      -0.00166769      -0.00166283       0.10972078       0.58210767       0.85429439      -3.37555513 F F F
 Ni            21.03389373      10.55625867      12.41524216      -0.00174468       0.00501493       0.00160499      -0.95574423       0.47285625      -2.27276114      -5.47719792 F F F
 Ni            15.34214384      23.44425039      17.86372214      -0.00058473       0.00379963       0.00262980       0.70516292       0.76062002      -0.62909555      -5.85911499 F F F
 Ni            14.00440982      12.82826069      18.88955507      -0.00591518       0.00163537       0.00290005       2.05815436      -0.08128605       0.03263582      -5.77582601 F F F
 Ni            15.08990216      20.99494945      13.28891363      -0.00195021       0.00265527       0.00123778       0.35697002      -0.78646311       1.69618903      -6.01591989 F F F
 Ni            20.37979585      20.66623284      16.72483825       0.00396421      -0.00313655       0.00160554       2.46273587      -0.68552900      -0.83872574      -5.98576405 F F F
 Cu            12.17156009      22.36030222      19.03846452      -0.00407977      -0.00331553       0.00038058      -0.72942225       0.15784333       1.77955567      -3.32616610 F F F
 Cu            16.64869662      26.36227680      15.57607735      -0.00415810       0.00268638       0.00381534      -0.27592147      -0.24159483      -0.43669111      -2.29489802 F F F
 Cu            12.32509809      12.96239364      17.29081673      -0.00292119      -0.00832188      -0.00222291      -0.34184583      -0.27572492      -0.25765743      -3.90771418 F F F
 Ni            15.47857806      11.23135370       8.71998748       0.00099061      -0.00221840      -0.00102364      -0.59532959      -1.65979337       0.19233998      -5.54580158 F F F
 Cu            15.56665815       5.56202964      16.28763336      -0.00577042       0.00176182       0.00128089       0.42845815      -0.81056599       0.70575819      -2.90260329 F F F
 Cu            24.20966912      19.45894276      21.11488102       0.00025434       0.00143608      -0.00129604      -1.15805156      -0.62321278       0.54563342      -3.04690836 F F F
 Ni            13.32605936       9.30386631      20.42662926      -0.00169474      -0.00210963      -0.00663065      -0.97375466      -0.56135321      -0.98322902      -6.14361752 F F F
 Ni            21.38438794      17.90337348      10.74729560       0.00288328      -0.00008420       0.00057644      -0.15580694      -2.99624806      -0.81328835      -6.08704793 F F F
 Cu            22.40380031      16.43626355      18.28060808      -0.00118704       0.00843950      -0.00091346      -1.04681035       0.62329551      -1.20290787      -3.82915849 F F F
 Cu            17.04217797      13.38683334      22.17672797      -0.00673320      -0.00746182      -0.00444302       1.37737952      -1.21990998      -1.20093628      -3.38856636 F F F
 Ni             9.43791130       8.81851616      18.27892897      -0.00099939      -0.00117195      -0.00232280       0.03824952       0.71033012       0.19300095      -5.57494002 F F F
 Ni            20.29959844      11.05349362      16.10793905      -0.01190266       0.00516178       0.00797688       1.07968916      -2.83991447      -1.17227119      -5.76990638 F F F
 Cu            22.82296890      14.17904387      22.44254939      -0.00087733      -0.00080672       0.00483590      -2.34839813      -0.09157856       1.09303390      -2.86108724 F F F
 Ni             4.69151456      14.49444870      15.30129265       0.00393533      -0.00189904       0.00278650      -1.00070823       1.82077277       2.02110071      -4.25876352 F F F
 Ni            21.01611714      19.89284669      11.35365594       0.00489531       0.00221105       0.00085429      -0.71132850       2.34124930       0.40035446      -5.92273307 F F F
 Cu            10.11283651      16.48077696      23.52914826       0.00100567       0.00261846      -0.00732610       0.84466893       0.02495963      -0.49588493      -3.33288291 F F F
 Cu            26.62322132      14.17488029      19.45643669       0.00205367       0.00605689      -0.00754598      -0.66121346       0.12745151       0.41703797      -2.35578258 F F F
 Ni            24.77956595      21.11042945      14.54978281      -0.00663458       0.00463706      -0.00831453      -0.28530086       0.25727464       0.15599806      -5.89238887 F F F
 Ni             9.70777165      18.16458516      15.93063823       0.00645373       0.00113373       0.00364511      -0.82949385      -0.58863607       0.59496916      -5.95539127 F F F
 Cu            12.02664510      14.87255241      24.94586755      -0.00138439      -0.00538789      -0.00043489       0.73629388      -0.06771015       0.68341129      -3.05378806 F F F
 Ni            14.45309280       8.19126017      18.75090203       0.00250094      -0.00564671       0.00545758       0.83838009      -0.29220195      -0.16897674      -5.97500613 F F F
 Ni            17.73419360       9.51723503      12.54895898      -0.00236432       0.00164740      -0.00110905      -2.07752829      -0.01616242       4.35981739      -5.53625223 F F F
 Cu            19.45355092       9.68337477       7.41081606      -0.00255992       0.00394348      -0.00159931      -0.00474921      -1.18034653      -0.25953266      -2.39627053 F F F
 Ni            12.03908582      19.59297426      19.01369296      -0.00290205       0.01434647       0.00414368       0.14200062      -0.07549020       0.03551067      -6.13412812 F F F
 Cu            10.00187961      21.21548784      22.49759137      -0.00718264      -0.00061747      -0.00098661       0.03963196      -0.19781518      -0.19952706      -2.74154857 F F F
 Cu             6.13336074      17.97072300      18.66974397      -0.00147800       0.00032955       0.00213403      -1.39672395       0.49895122      -0.13848277      -3.06235449 F F F
 Ni            12.79579604       6.96527847      20.27328917       0.00319477      -0.00664399       0.00162271       1.68938657       0.15834637      -0.63903413      -4.92870956 F F F
 Cu            10.40384231      19.18014082       9.92419193      -0.00247044       0.00046285       0.00115626      -0.26878083      -1.57162487       0.14958658      -3.16278076 F F F
 Ni             7.75754376      19.52723881      14.39268599       0.00384720       0.00261588       0.00379171       0.60944064      -0.47081542      -0.27712524      -5.89329071 F F F
 Cu             6.71150207      15.96638118      19.49553460      -0.00224713      -0.00313475       0.00085496       0.54305170      -0.66478896       1.98420943      -3.04225551 F F F
 Cu             6.94612120      14.65614213      21.50202279       0.00832519       0.00386174      -0.00119932      -1.05379014      -0.26193436       0.14085186      -2.48760669 F F F
 Ni            11.96785038      11.07478918      11.33652206       0.00867444       0.00443859      -0.00683532      -0.44656395      -0.62397058      -0.64993539      -6.19292107 F F F
 Cu            12.16629349      14.77962477       9.08923284      -0.00193423      -0.00301743      -0.00634477       0.63020459       0.08885673       1.46720916      -3.64436596 F F F
 Ni            17.74127722      17.63406345      17.24065616      -0.00277779       0.00972714      -0.00573616      -0.12073461       0.20166643      -1.13967847      -6.04167805 F F F
 Ni             9.02658237      23.04867818      16.68396986       0.00363996      -0.00161890      -0.00123961       2.11675249      -0.16939563      -0.36955522      -4.70650826 F F F
 Ni            13.07804373       8.28963765      13.73314334      -0.00526225      -0.00272710       0.00139934       0.24203430      -0.40103349       1.15022051      -5.81432323 F F F
 Ni            22.42233996      15.85560428      12.65939099      -0.00316173       0.00069577      -0.00027187       0.29287164      -0.83593441      -1.03342870      -6.15649917 F F F
 Cu            17.26701205      20.10955767      18.88981771      -0.00998239       0.00770691      -0.00184636      -1.85304765      -0.17705625      -0.34617898      -3.78507980 F F F
 Ni             8.11909024      15.72874499      11.92502135       0.00436505       0.00457859      -0.00530858      -1.12434148       0.34807556      -0.98922736      -5.74948246 F F F
 Cu             5.80169322      13.17382145      14.11669456      -0.00074200       0.00570323       0.00067238       1.13742469      -0.06886603      -0.93807318      -2.92258283 F F F
 Ni            16.80223143       7.31544994      16.75148147      -0.00074799       0.00254728       0.00220306       0.03034177       1.71277229      -0.35930540      -5.32787380 F F F
 Cu            25.04354150      12.68634169      17.89462714      -0.00086477       0.00289734       0.00065087      -0.64321468       0.52822059      -0.15928459      -3.13712468 F F F
 Ni            19.27111888      12.98078156      23.17606967      -0.00002063       0.00860697       0.00881572      -1.32251566      -0.46629581       1.79875909      -5.45797823 F F F
 Ni            14.12976702      15.67025106       7.12051128      -0.00658808      -0.00432441       0.00500455       0.89888994      -0.18185454       0.32929572      -6.07060676 F F F
 Cu             7.00565038      14.92525863      15.83589036      -0.00410920       0.00342669      -0.00519073      -0.30721404      -0.53797408      -0.90223935      -3.28596630 F F F
 Ni            16.65247257      20.91855982      22.33429871       0.00197740       0.00249111       0.00191672       0.74714702      -0.81706164      -0.72048456      -6.07803447 F F F
 Ni            18.73116570      15.20501022       8.96998194       0.00041809      -0.00095957      -0.00805984      -1.24046905       1.39798702      -0.12567115      -5.73520845 F F F
 Ni            10.75708394      15.28699508      21.23578717      -0.00225076       0.00201394       0.00170988      -0.67276760       0.76594134       0.60997458      -6.03471432 F F F
 Ni            11.42663573      19.71138237      16.33644714       0.00072177       0.00612943       0.00500421       0.63208676       0.91588380      -0.43302714      -6.33210229 F F F
 Ni             8.95469189      10.72680188      14.30404929       0.00101317      -0.00623243      -0.01050938      -1.61969456      -0.80209243      -0.52257099      -5.77935426 F F F
 Cu            23.98889856      21.14732811      19.51234237      -0.00273759      -0.00304986       0.00096908       0.48588679      -0.20499971      -2.18565604      -2.96485363 F F F
 Cu            15.10334587      22.96441785      11.32141307      -0.00143838       0.00338784       0.00360958      -0.03522146       1.30957021      -1.13744221      -3.07809379 F F F
 Ni            10.12974889      15.14356674      12.74466187       0.00218838       0.00300737      -0.00398993       1.65298745      -1.54170011       0.94482666      -6.28857659 F F F
 Cu            19.29249413      20.39763868       7.22935403       0.00053868       0.00043750      -0.00431123      -0.34260130       0.63515568       0.76011142      -3.07386854 F F F
 Cu             5.65687541      15.80984520      13.60879733       0.00308206       0.00246735      -0.00400032       0.56060056       0.68360216       0.43230722      -3.48859919 F F F
 Ni            16.06341749      23.07106778      21.89588423       0.00061749      -0.00789855      -0.00678916      -1.04246619       0.45059719       0.01476186      -5.58896722 F F F
 Cu            10.91818642      23.27088189      21.42498323       0.00791593       0.00305684      -0.00713084       0.13637092      -0.34220602      -0.74193990      -2.91133601 F F F
 Ni             9.60813626      12.11950077      19.54446556       0.01347366      -0.00136505       0.00386334       0.07617905      -0.87702838      -0.91866313      -5.97610725 F F F
 Cu            19.86663450      11.38700348      18.25936377       0.00510587      -0.00441476       0.00917797      -1.03591582      -0.36587768       0.63170238      -3.78323697 F F F
 Cu            17.85932265       6.97827602      11.38964727       0.00182334       0.00577789      -0.00129603      -0.82376873      -0.11677595       1.18706311      -2.83615665 F F F
 Cu            13.52750631      25.01140680      12.42426063       0.00361730      -0.01076332      -0.00045959      -0.56388481      -0.55910107      -0.30560828      -2.80431145 F F F
 Cu            14.86683541      13.65400087      14.18040311       0.00411110       0.00144764       0.00270533      -0.32226592      -0.15014070      -0.57081305      -4.10931099 F F F
 Cu            23.39966943      11.73687018      13.04908240      -0.00420425      -0.00391253      -0.00424831      -0.24859715      -1.04599224      -1.28221283      -3.00980725 F F F
 Cu             5.76051244      15.68596536      17.47290075      -0.00393291       0.00282552      -0.00262690      -1.58747806       0.42205931      -0.41958396      -2.96387974 F F F
 Cu            10.98238285      23.60322541      12.94220540      -0.00083340       0.00315642      -0.00223565       0.53515992      -0.34909970       0.50922127      -3.11450936 F F F
 Ni            16.38347875      12.23732349      20.23264064       0.00121503      -0.00105800       0.00086809       0.77863378       0.69214233      -0.58312347      -5.92896900 F F F
 Ni             9.72079387      18.98676380      18.07772383      -0.00940865       0.00259469       0.00460986      -0.65093160      -0.49626281       1.34271250      -6.18063512 F F F