     480
 Properties=species:S:1:pos:R:3:velocities:R:3:forces:R:3:local_energy:R:1:fix_atoms:S:3 Lattice="31.6575874013       0.0000000000    0.0000000000    0.0000000000   31.4396548309    0.0000000000    0.0000000000    0.0000000000   31.8225730859" temperature=1322.28199227 pressure=552.90679383 time_step=1.0000 time=3000000.000000 energy=-2131.432037 energy_soap=-752.55550172  energy_2b=-943.78859480 energy_3b=0.00000000 energy_core_pot=0.00230924 energy_vdw=0.00000000 energy_exp=0.00000000 energy_xps=0.00000000 virial="-12.50534102          4.41598012    -17.94755831      4.41598012    -45.89879153    -28.49837269    -17.94755831    -28.49837269    -72.54449202" stress="0.00039483           -0.00013942      0.00056665     -0.00013942      0.00144914      0.00089977      0.00056665      0.00089977      0.00229041" volume=31673.122212 step=3000000
 Cu            10.71168741      24.30289444      18.61846929       0.00018017      -0.00154238       0.00161576      -0.33082437       0.22191702       0.32086584      -2.72580183 F F F
 Cu            11.05284928      24.60822486      16.36960428      -0.00175696       0.00138268       0.00123018      -0.26121525      -0.00292180      -1.69347935      -2.88590405 F F F
 Ni            15.41341757      10.06485555      17.87877346       0.00328099       0.00114422       0.00004357       0.74045819       0.62807089       0.05347771      -5.78525433 F F F
 Ni            13.17150478      19.49804897      22.52985261       0.00785406       0.00328369       0.00608488      -1.40345956       0.09088648      -0.26968981      -5.84486298 F F F
 Cu            14.60194606      17.28563570      25.35291285       0.00058573       0.00414838       0.00477643       0.39841716      -0.71246008      -0.05046305      -2.97953332 F F F
 Ni            11.00375826       9.17566631      18.25853519      -0.00135793       0.00257954      -0.00051483       0.31173514      -0.39138465      -1.99045657      -5.87462429 F F F
 Ni             8.44858408      13.54053261      11.45569013       0.00113545      -0.00100076       0.00162354       0.12387318       1.98604387       0.14312898      -5.61664001 F F F
 Cu            14.82978919      12.42606564      14.53194674      -0.00260597       0.00324342       0.00213646       1.76648340       1.03123567       0.36661366      -3.84944106 F F F
 Cu            23.39411795      16.97396111       9.41467118      -0.00134456       0.00145222      -0.00221617      -0.06666243      -0.08750815      -0.90778883      -2.40441271 F F F
 Cu            11.75522092      21.48091919      12.78166638      -0.00381681      -0.00441749      -0.00557566      -0.24359161      -0.81783430      -0.89147676      -3.34702244 F F F
 Cu             9.54546051      12.19319857       9.31804158      -0.00364267      -0.00283227      -0.00683065      -0.04058961      -0.07783795      -1.08653718      -3.45021801 F F F
 Ni            15.10995714      19.22226266      13.15589437       0.00734801      -0.00403429       0.00307326      -1.02984085      -0.68171051      -0.23094117      -6.08489166 F F F
 Ni            16.01005394      11.98138475      16.77574740       0.00382838      -0.00286999      -0.00149417       0.25404863       0.48637293       0.01444699      -6.07255048 F F F
 Cu            17.36427497      21.62978269      17.96883770       0.00092168      -0.00164702      -0.00320048       0.16730429       0.13772666       0.54558242      -3.80330430 F F F
 Cu            27.03470132      12.86018336      14.64428066      -0.00194018      -0.00189527      -0.00252016       0.31889189       0.40776689       0.17287912      -2.56256788 F F F
 Ni            17.96269612      15.96376245       9.61539763      -0.00650276      -0.00250099      -0.00817480       0.47560052      -0.11418792      -1.31935331      -6.12535303 F F F
 Cu             6.49109223      17.98650800      15.21368663       0.00147613      -0.00308416       0.00238942       0.01771386      -0.69335534       0.03637862      -3.09179973 F F F
 Ni            17.90853055      13.52589501      10.34294279       0.00963161       0.00057869      -0.01098129      -2.35847471      -1.29679559       0.34640915      -5.86203059 F F F
 Cu            20.61957142       8.49196767      19.90773196      -0.00027339      -0.00217323       0.00396258      -0.16786985       0.60731230       0.05781364      -3.11809229 F F F
 Ni             8.07386246      13.04850081      18.55126513       0.00269078       0.00323909      -0.00099753       0.31807738       1.55866805      -0.84294401      -5.59191227 F F F
 Cu            18.30790070      21.70014303      11.35010236      -0.00209794      -0.00282714       0.00198120       1.36526390       0.11453734      -0.59583348      -3.67727666 F F F
 Cu             7.89256597       9.61079968      11.79394327      -0.00194363      -0.00267618      -0.00016290      -0.46646359      -1.27151425       3.11109324      -2.71330031 F F F
 Cu             6.83769521      12.31739603      20.84275478       0.00137016       0.00217132      -0.00235595       0.78075325       0.50609652      -0.64901716      -2.81379552 F F F
 Cu             9.79269106      16.98016194      20.11714135      -0.00325297       0.00228520       0.00669124      -0.29774203       0.55326997       1.26544506      -3.85149747 F F F
 Ni            12.67777542      13.83815376      13.02797678       0.00367064       0.00184023       0.00051434      -0.51577993       0.71341525       0.63657963      -6.06894655 F F F
 Ni            22.30927797      19.41605754      18.33301852      -0.00259179      -0.00172664      -0.00870878       0.01737142       0.59039693       0.23953653      -6.13326685 F F F
 Ni            21.99794843      24.47275664      15.19872032      -0.00159587      -0.00240667      -0.00749860      -0.56158135       1.07064734       0.30316084      -5.08013666 F F F
 Cu            10.22602142      15.17720037      12.53776402       0.00129951      -0.00175348      -0.00316639      -0.19157120      -0.73149744       0.48746029      -4.27446535 F F F
 Ni            21.45282394      14.01951426      11.23236683      -0.00631100       0.00006541       0.00414950      -0.03523805      -0.31285206      -0.73410387      -6.24000252 F F F
 Ni            14.18288855      15.85118402      18.42831936       0.00259699       0.00320272      -0.00148336      -0.84838400      -0.30494922      -0.84942662      -5.42756323 F F F
 Cu            18.00222722      18.42734607      23.22033332       0.00251476       0.00205424      -0.00064085      -0.48781667       1.05725669      -0.32515350      -3.01716723 F F F
 Cu            14.03530866       7.58887611      21.38722449      -0.00387883       0.00521307      -0.00579206      -0.87135849       1.00666871       0.24340369      -2.90268372 F F F
 Ni            11.34337861      11.31008053      16.29115290       0.00200484       0.00712780      -0.00140540      -1.55248838      -0.88879002      -0.14443992      -6.23134929 F F F
 Ni            14.20790296      10.71899777      10.72597790       0.00515788       0.00589704       0.00232116      -0.82385925      -1.66285099      -0.10903449      -6.17235510 F F F
 Cu            23.91106557      23.68844897      13.90309264       0.00018757       0.00225469      -0.00333769       0.40025534      -0.65424554       0.66078050      -2.53610574 F F F
 Cu            17.29020633      25.96305163      11.25007487       0.00189394       0.00809969       0.00371356      -0.53038424      -0.57871444      -0.27986077      -2.73883068 F F F
 Ni            20.55256257      10.89293095      21.17367040      -0.00496545      -0.00240794       0.00188110       0.09774978      -0.10718387      -0.35746744      -5.58742366 F F F
 Ni            18.95058081      10.37234911      11.08619383      -0.00673477      -0.00938126       0.00233903      -0.55553752      -0.93247469       2.06195504      -6.01777989 F F F
 Ni            16.36445558      14.55179485      21.78913367      -0.00559651       0.00131189       0.00498832      -0.14768346      -0.61487381      -0.25036355      -5.99370983 F F F
 Ni            18.78650878      19.64747141      20.54409321      -0.00271983       0.00516319      -0.00162833      -1.16627708       0.67057943      -0.22551057      -6.35392056 F F F
 Cu            13.96545740      21.79442750      15.99618464       0.01001653      -0.00101536      -0.00235009      -0.42208113      -0.34233322       1.23958848      -3.42584574 F F F
 Cu            23.56378396      14.56399787      13.67568505       0.00818869       0.00320386      -0.00415914      -0.60294215       0.73694043       1.37414133      -3.79777246 F F F
 Cu            11.67130424      10.89485730      24.19181157      -0.00570251      -0.00978790       0.00850410      -0.62583438       0.61594458       0.25560707      -3.01401526 F F F
 Cu            22.74472537      12.67195753       8.77363073      -0.00160373      -0.00233494      -0.00301374       0.75141082       1.36773068      -0.28680002      -2.48569896 F F F
 Cu            12.17401072       7.21220652      11.37217455      -0.00558750       0.00372657      -0.00662234      -3.03780224      -2.15765949       1.59146713      -2.68927188 F F F
 Ni            10.69870324      17.51595562      17.95466575      -0.00027385       0.00254695      -0.00300815       0.14232455      -0.03006691       0.06552407      -6.06906918 F F F
 Ni            19.55136395      14.22623398       8.99834647      -0.00396109      -0.00275047      -0.00314377       1.15934338       0.65646087      -0.43952338      -5.90037851 F F F
 Ni            15.28337800      16.04494115      23.24068532       0.00940142       0.00340228      -0.00632294      -2.35557321       0.35545398      -0.16191956      -5.92747506 F F F
 Ni            15.81404935      25.46667852      13.24561626       0.00348906      -0.00239319       0.00022988      -0.62849719      -0.48046565      -0.63630294      -5.68534435 F F F
 Cu            25.17055028      16.43317351      15.85617414       0.00073778      -0.00131308      -0.00110912      -0.93705626       1.76199294      -0.21441662      -3.20979175 F F F
 Ni            22.97836973      10.82457083      12.96945658       0.00146501       0.00131603       0.00342403       0.40453846      -0.66381497      -1.81154136      -5.39752223 F F F
 Ni            11.80287485      15.09186752       6.24395529      -0.00175269      -0.00740524       0.00178930       0.15775755      -0.08200166       1.32247866      -5.08240250 F F F
 Ni             8.62594803      13.63523512      13.97655256       0.00639673       0.00037150      -0.00193331      -2.78801396       2.11018079      -0.25269083      -5.99931337 F F F
 Ni            15.26239956      12.65324917       9.91062925      -0.00764602      -0.00543376      -0.00363520       0.46067732       1.15731886      -0.17256660      -6.02368435 F F F
 Ni            11.34931251      10.44449144      10.30288905       0.00787532      -0.00249803       0.00060221       0.30711715       0.75491205      -0.54306258      -5.80103806 F F F
 Ni            13.44362933      23.10398404      11.69217489       0.00120640      -0.00392748      -0.00487434      -0.00605777      -0.02245708       0.89442840      -6.09508971 F F F
 Ni            21.53803236      15.58175080      12.92968939      -0.00637004       0.00169403       0.00124517      -0.69326215      -0.58020501       0.30028397      -5.95469840 F F F
 Ni            12.02013220      16.76099056       8.22093110       0.00028528      -0.00129422      -0.00945758      -1.29084248      -1.02802237      -1.09327186      -5.82977023 F F F
 Cu            15.54456791      18.72974019      23.11308266       0.00396303       0.00679512       0.00131906      -1.30301286      -0.75938372       0.02479143      -3.87422504 F F F
 Ni            16.67460605      21.04347325      12.77036691      -0.00162198      -0.00191318       0.00783709       0.11601169      -0.29616380       0.74093101      -5.55722761 F F F
 Ni            21.72450840      12.94625531      13.28260055      -0.00268285       0.00346463       0.00385514      -0.38620401       0.61429864      -0.66259592      -6.03417735 F F F
 Cu            12.39567657      22.77281456      14.49758476      -0.00363704       0.00281657      -0.00053405      -2.38385157      -1.71375712       2.37015718      -3.26681848 F F F
 Ni            15.82279017      22.80746913      11.90861066      -0.00353027      -0.00873187      -0.00182024      -0.29153745       2.52054637      -0.85872078      -6.01620064 F F F
 Ni            19.58201325      14.36926342      16.74686125       0.00755475      -0.00074407       0.00309829       0.13759120       0.54120099      -2.59227415      -5.85815882 F F F
 Ni             8.29584877      16.15401881      18.34410410      -0.00061363      -0.00536612      -0.00085010      -0.86858781       0.65552402       0.49838015      -5.78459035 F F F
 Ni            20.38130959      25.66056298      13.69498527       0.00173209      -0.00837735       0.00220767       0.19699324       0.49345460       0.92005887      -4.68664042 F F F
 Cu            16.09118897       8.33561616      22.83545371       0.00580004      -0.00488154       0.00719679      -0.00991939       0.64102831      -0.94793978      -2.48365050 F F F
 Cu            22.38163728       7.06549089      16.20278101      -0.00334154       0.00338845       0.00067586       0.37243171      -1.18663403      -0.53440018      -2.76558151 F F F
 Ni            23.83894428      16.09212111      18.02840865      -0.00321025       0.00393675       0.00050445       0.23406669       3.68643298       1.41885802      -5.84659967 F F F
 Ni            19.50724715      19.49453323      14.50129264       0.00059135       0.01260906      -0.00733066      -0.38757737       0.41498728       0.14225757      -5.87379689 F F F
 Ni             8.38569106      20.96631172      20.10968821      -0.00098207      -0.00329922       0.00084562       0.41479351      -1.18397958      -0.18492631      -4.84469800 F F F
 Ni             9.61013108      12.53882378      20.11217318       0.00134820      -0.00174281       0.00214526       0.62936798       0.51138210       0.85410562      -6.14012275 F F F
 Cu            24.91997990      10.97236475      15.33769067       0.00237216       0.00079172      -0.00573026      -0.43338520       0.23576529       0.05496990      -3.01484548 F F F
 Cu            19.16249838      21.26552916      22.51958994      -0.00312549       0.00693206      -0.00243871       0.16997317      -0.56381745      -0.01781175      -3.44301499 F F F
 Ni            12.54444110      15.84395283      22.08999148       0.00519443       0.00275279       0.00126805       0.81388371      -1.08912271      -1.26225287      -5.95995403 F F F
 Ni            12.99715271      17.47893449      23.79222002       0.00000713       0.00013497      -0.00236696      -0.45150571       0.20786730      -0.95836927      -5.78654398 F F F
 Cu            17.60039595      19.86198319       9.30727348       0.00141523       0.00154601       0.00991808       0.58281012      -0.23059244       0.76396553      -3.45573759 F F F
 Ni            18.79955440      17.98046119      16.10834651       0.00302830      -0.00087496       0.00252521       0.02641661      -0.17627935       0.76244338      -5.99942199 F F F
 Ni            20.58871490      18.35044191      20.85669477       0.00471952       0.00331846       0.00175625       0.72969768       0.07805489       0.87019060      -5.94367731 F F F
 Cu            18.96383126       9.55387515      15.03186714       0.00064616       0.00007512       0.00392551       0.94262190      -0.06039612      -0.98346319      -3.92723844 F F F
 Cu            11.65773006      10.83129796       7.67528668       0.00614913      -0.00373757       0.01318192       0.59232652       0.31337790       1.12969739      -2.96039679 F F F
 Cu            24.46808404      13.05218268      21.45386943       0.00531573      -0.00172574       0.00422772      -0.35618084       0.73353814      -0.73481885      -2.80126079 F F F
 Cu            15.91537858      24.14489941       8.71149310      -0.00421078      -0.00438074       0.00006655       0.04343593      -0.59337091       0.07229865      -2.85985534 F F F
 Cu             6.80450083      17.90652163      12.41578196       0.00502281      -0.00199877       0.00677987       0.05551768       0.22484388       0.02890950      -3.18381626 F F F
 Ni            12.41530572      19.89466028      15.25317457      -0.00118124       0.00088404       0.00517792       0.18283507       1.31159987      -0.29848573      -6.11136145 F F F
 Ni             9.77985965      11.77281059      11.68533336      -0.00629205      -0.00578003      -0.00241762      -0.86344323      -3.05552023       1.91199011      -5.66696372 F F F
 Ni            17.88877034      22.27394933      14.36898011       0.00207460       0.00679677      -0.00133389       1.44395254      -2.58505483      -0.35534550      -6.03422259 F F F
 Ni            14.89069412       8.00376560      18.52667993       0.00132586      -0.00388376      -0.00364530       0.62183248      -0.44714590       2.61272202      -5.70120263 F F F
 Ni            22.73105979      13.33922785      19.11293255      -0.00524481       0.00239086      -0.00103854       0.76090787      -0.42656159       0.36190541      -5.82420296 F F F
 Cu            24.88438017      14.13185514      18.65253685       0.00052714      -0.00072286       0.00249147       0.85903325      -0.42761352       0.01112944      -3.27213211 F F F
 Cu            10.66925971      19.47600679      13.89501705      -0.00400041       0.00945402       0.00173104      -1.72929372       0.52378662      -0.74876024      -3.52969672 F F F
 Cu            20.28547033      15.63309036      20.42652142      -0.00130078      -0.00209723       0.00390564      -0.37394206      -0.67311899       0.44915819      -3.92544675 F F F
 Ni            20.32881585      12.60541338      15.10665127       0.00101360      -0.00318760       0.00107473      -1.32563518      -0.83729970       0.12236502      -6.02245659 F F F
 Cu            24.38965398      16.84437534      13.56389699       0.00454454       0.00001591       0.00079857      -0.12717389       0.38242242      -0.43346709      -3.23020523 F F F
 Cu            19.13252361      23.65536490      22.21719664       0.00089717       0.00329898      -0.00044851       0.77536418      -0.58574953       0.19501070      -2.57643547 F F F
 Ni             9.36507371      15.08381364       7.60662100       0.00061119      -0.00213583       0.00379618       0.90620603      -0.17963493       0.68630574      -4.97403142 F F F
 Ni            19.10882277       7.50097672      17.52659296       0.00054674       0.00498339       0.00653956       1.48603222       0.18019563       0.62041374      -6.05089761 F F F
 Cu            25.14848597      12.54120135      13.44452315       0.00306460      -0.00140480      -0.00027576      -0.23028928      -1.41352486       0.47481891      -2.84605030 F F F
 Cu            16.12132112       7.23482981      20.61770116      -0.00108981       0.00053029       0.00107053       1.46770413       0.92432316      -0.06789822      -2.92247699 F F F
 Ni            12.89807239      12.38816842       9.17854190      -0.00489182      -0.00187508       0.00290554       0.81498055      -1.93951775       0.32552139      -6.06809585 F F F
 Ni            21.94434358      17.11695127      22.34690177      -0.00510649       0.00138195      -0.00526139       0.39247523      -0.67797827      -1.51013305      -5.54398369 F F F
 Cu            12.51212362      18.47593288       6.00476424       0.00097945      -0.00752989      -0.00277494       0.11862611      -0.54594793       0.53519034      -2.36224954 F F F
 Ni            16.88687175       6.35116002      18.56929782      -0.00721334      -0.00154684      -0.00541721      -1.63252169      -1.07423954       0.55132090      -5.11475265 F F F
 Ni            17.45717649       9.76143531      13.02944826       0.00230236       0.00165122       0.00041505       0.51950055      -0.04657326       0.23576652      -6.05395776 F F F
 Cu            12.22326916      15.99725710      19.58865645      -0.00104131      -0.00177000       0.00315050      -0.57099190       0.74346304       0.30736042      -3.98004693 F F F
 Cu             8.74651376      17.49814331      13.95227050       0.00361691      -0.00734642      -0.00379120       0.17265739       0.08567440      -0.61372649      -3.89400495 F F F
 Ni            14.62832906      19.51340810      15.53402616      -0.00630929      -0.00302200       0.00206190      -0.12415689      -1.88426992      -0.40867364      -5.91759005 F F F
 Ni            19.46494722      23.29804282      19.48759759      -0.00433354      -0.00300473      -0.00665171       1.23546310      -0.08639391      -0.55919968      -5.96695581 F F F
 Cu            19.47029109      17.39199984      24.83243394      -0.00303681       0.00079248       0.00376543      -0.36854972      -0.20237388       1.26507408      -2.83448199 F F F
 Ni            17.25014071       8.76450526      18.76356609      -0.00951780       0.00058337      -0.00083174      -0.26236837      -0.34695112       1.46878523      -6.05297065 F F F
 Ni            11.93445420      11.52474595      19.04242555       0.00121976       0.00202032       0.00439471      -0.55720375      -0.04154039      -0.37178021      -6.30208431 F F F
 Cu            15.33269930      16.55681090      12.00022712      -0.00147711       0.00661629       0.00235475       0.53116387       0.70518598      -0.00527315      -3.75480211 F F F
 Ni            17.03726777      16.74913669      21.79611800       0.00860233      -0.00097045       0.00471351       0.46520067      -0.89768583       1.55326079      -5.90876442 F F F
 Cu            14.57114716      10.30818962      15.65957947      -0.00322964      -0.00354405       0.00526513      -2.08142749       1.76732748       0.36513059      -3.41145068 F F F
 Cu             7.23529266       9.46626157      14.41679168       0.00162487      -0.00901582       0.00496579      -0.91219466       0.81804911       0.72848141      -3.00965481 F F F
 Ni            21.67279163      17.69791644      14.00563057      -0.00566750      -0.00488652       0.00780751       0.58397401       2.02375719      -1.47513756      -5.95230428 F F F
 Cu            14.25676965      10.00855114       8.38254537      -0.00062747       0.00625342      -0.00256862      -0.89194912      -0.17264720       0.26971658      -2.96675824 F F F
 Ni            16.79348371      20.31649409      22.14380603      -0.00840156       0.00426613      -0.00550437       0.59501125       0.69289120      -0.58437885      -5.62754365 F F F
 Cu            14.43884068      13.83902467       5.50406711       0.00128338      -0.00611905      -0.00054156       0.85336777       1.01917828       0.25262439      -2.39686006 F F F
 Cu            15.09422543      26.85347173      17.48272399       0.00103115       0.00187399       0.00558297      -0.19291344      -0.87395248       0.00622468      -2.96288550 F F F
 Ni            10.85744510      13.36244306      10.76337684       0.00009007       0.00471684      -0.00086630       0.64713473       3.45781996      -0.98437234      -5.74512481 F F F
 Cu            24.63466315      15.81527254      20.39581946       0.00589107       0.00977845       0.00055072       2.35555667       0.32328386      -0.71293510      -2.84941259 F F F
 Ni            24.88604720      20.94304329      16.37637658       0.00586895      -0.00382007       0.00200160      -1.19366136       0.12037264       0.38440764      -4.99999286 F F F
 Ni            13.32646835      12.24582154      16.42921022      -0.00523803      -0.00180989       0.00725644       1.08315635       0.57951873       1.51634708      -5.90900941 F F F
 Ni            14.18692010      21.31199612      13.70173876       0.00189824       0.00051987       0.00342276      -0.09862576       0.36494953       0.43022731      -6.10305784 F F F
 Ni            21.28894277      14.77278466      18.20128202      -0.00053914       0.00082243       0.00134014      -0.66504801       2.85095785       0.67548590      -5.99299855 F F F
 Cu            20.71415397      23.07598298      10.84687511      -0.00138584       0.00222636       0.00090147      -0.22220832       0.89560772       0.62003482      -2.95719712 F F F
 Ni            21.43625301      19.95881208      13.54397724       0.00125277      -0.00164024      -0.00308518       1.25529695       1.01765110       0.38461641      -5.88905704 F F F
 Cu            14.99525415       5.67987436      16.97090930      -0.00848805       0.00220331       0.00141776       0.41385409       0.06613802       0.13732414      -3.08315550 F F F
 Ni            10.56401890       7.53371101      15.88862021      -0.00102655       0.00596273      -0.00305879       0.12072716      -0.54170825       0.55654554      -5.32406849 F F F
 Cu            11.28612159      15.18154858      23.77969984      -0.00226735       0.00690149       0.00535276      -3.30682648       0.87159234       0.70798555      -2.80409862 F F F
 Ni            11.72857683      13.66437415      20.26163797      -0.00915835      -0.00048129      -0.00314772       0.31961598      -0.70926116       0.12864555      -6.06269691 F F F
 Ni            14.57313400      22.32042769       9.65542182       0.00053293      -0.00178046       0.00191093       1.40381927      -1.12799094      -0.49600763      -6.01146193 F F F
 Cu            16.14922366      21.15071066      15.31829659       0.00253862       0.00033170       0.00140187       0.56989478      -0.36754022      -0.18874813      -3.55318234 F F F
 Ni             9.79505339      21.33216993      15.49165932      -0.00491162       0.00299308      -0.00404713       0.61211843       0.85194892      -0.52030122      -5.88756141 F F F
 Ni            21.48410195      12.75612550      17.31186831       0.00317690      -0.00602827      -0.00281728      -1.12832009      -0.70979385      -1.39789407      -5.91318770 F F F
 Ni            21.90770583      22.16927471      18.55819077      -0.00241423      -0.00156195       0.00005344       0.47003515       0.60116316       1.15377580      -5.98608963 F F F
 Ni            10.95032262      11.65021376      21.79759275       0.00645526      -0.00208261      -0.00135440       2.99218624       0.98235916      -0.66790061      -5.58943600 F F F
 Ni            11.25765066      15.72223359      10.57615626       0.00136344      -0.00657882      -0.00956319       1.28070728       0.89341289      -0.40138129      -5.69699551 F F F
 Cu            20.70324765      19.37137420      16.54837032      -0.00090459       0.00358722      -0.00090618      -0.15676969       2.36093012      -1.15106279      -3.99088297 F F F
 Cu             7.61563714      11.59077853      10.91596777       0.00181625       0.00159356      -0.00087273      -1.88518162       0.37679354      -0.76353308      -2.76270221 F F F
 Ni            10.60783523       9.90761848      20.29200152      -0.00268173       0.00524770      -0.00933881      -0.27182014       1.31267481       0.79286696      -5.89555618 F F F
 Cu            15.14758597      14.58856003      25.64900811      -0.00144852      -0.00378258      -0.00318366       0.04147837      -0.37526369      -0.71599036      -2.98205315 F F F
 Cu            12.76906395      26.24086535      16.21211129      -0.00936938       0.00099798       0.00279536       0.53341562      -0.15452295       0.09744129      -2.93408190 F F F
 Ni            16.42119434      20.48320492      19.80961213       0.00126043      -0.01059805      -0.00155353      -1.01989745       0.43612626      -0.60196757      -5.44295467 F F F
 Cu            18.86555312       6.15898546      19.51147394       0.00046959       0.00282365       0.00682283       1.46434591       0.89852038       0.07292028      -2.88666190 F F F
 Ni            11.45021581      15.65759320      16.68008451      -0.00406299      -0.00752732      -0.00690596       0.77675787       1.77399124       1.51524549      -6.13302580 F F F
 Cu            17.02174749      24.43531673      21.53146971       0.00117819       0.00278946       0.00073162      -1.30117531      -0.34921303      -0.89346835      -2.89545025 F F F
 Cu            11.63482855      23.66213857      21.10953610       0.00288777       0.00570712      -0.00419322       0.25210251      -0.61214868      -0.14215094      -3.11878605 F F F
 Cu            13.84652788      20.14037030       7.12707465       0.00012161       0.00112954      -0.00233184       0.01535651      -0.33565846       0.73694774      -3.18225716 F F F
 Cu            17.18936094      16.13312610      24.38456985      -0.00514576      -0.00005924      -0.00192826       0.83967492      -0.30703406      -0.44958774      -3.34806655 F F F
 Cu            22.71665595      19.49416207      21.06301652       0.00594195      -0.00361607       0.00058506       0.58909194      -1.23186648       0.13660792      -3.45792838 F F F
 Cu            10.08054201      21.19320940      22.07652023       0.00479034       0.00421171      -0.00052505      -0.21707308       1.01377185       1.02510596      -2.87521441 F F F
 Cu            14.44562442       5.95954860      19.47896907       0.00516052       0.00968612      -0.00598055      -0.05658333      -0.26107126      -0.19595125      -2.84217081 F F F
 Ni            20.90925130      15.98827102      10.08160015       0.00550830       0.00416613      -0.00629441      -0.26561740       0.38053823       0.98267848      -5.97750356 F F F
 Ni            20.70285069      13.30707807      20.52449127       0.00817135      -0.00272369       0.00163083       1.36170711       0.46500156       0.29649475      -6.01589317 F F F