    5000
 Properties=species:S:1:pos:R:3:velocities:R:3:forces:R:3:local_energy:R:1:fix_atoms:S:3 Lattice="60.0442190501       0.0000000000    0.0000000000    0.0000000000   60.0443190876    0.0000000000    0.0000000000    0.0000000000   59.7873545727" temperature=0.00000000 pressure=-0.90312712 time_step=1.0000 time=390.000000 energy=-17853.336034 energy_soap=-10422.32832328  energy_2b=-6357.39566055 energy_3b=0.00000000 energy_core_pot=0.00000000 energy_vdw=0.00000000 energy_exp=0.00000000 energy_xps=0.00000000 virial="-7.96613628          -2.77538449      6.77378658     -2.77538449     10.18862703      9.37739135      6.77378658      9.37739135     -2.58700307" stress="0.00003696            0.00001288     -0.00003143      0.00001288     -0.00004727     -0.00004350     -0.00003143     -0.00004350      0.00001200" volume=215552.201292 step=390
 Cu            22.26086238      49.27416128      34.13138864       0.00000000       0.00000000       0.00000000      -0.00020194      -0.00000099       0.00063513      -3.52468727 F F F
 Cu             5.17952316      32.09288668      30.23952371       0.00000000       0.00000000       0.00000000       0.00021823      -0.00003453      -0.00018486      -2.84830243 F F F
 Cu            19.11661687      42.94500574      39.52383884       0.00000000       0.00000000       0.00000000      -0.00008990      -0.00018416      -0.00001625      -3.73808870 F F F
 Cu            36.82141238      23.87220244      41.45519300       0.00000000       0.00000000       0.00000000       0.00150137       0.00185268      -0.00128272      -3.72375221 F F F
 Cu            25.07813138       7.37773424      30.38111740       0.00000000       0.00000000       0.00000000      -0.00014548      -0.00011329       0.00042034      -3.33889182 F F F
 Cu            40.76489976      45.88375714      39.07281917       0.00000000       0.00000000       0.00000000      -0.00074725       0.00083371       0.00003420      -3.63164690 F F F
 Cu            23.68109417      15.78684349      22.81276858       0.00000000       0.00000000       0.00000000      -0.00024963      -0.00044122      -0.00004684      -3.76498469 F F F
 Cu            46.07139959      27.70291248      15.53327294       0.00000000       0.00000000       0.00000000      -0.00072473       0.00009693       0.00041715      -3.61470912 F F F
 Cu            15.36576449      28.17053151      25.23496367       0.00000000       0.00000000       0.00000000       0.00006019       0.00001525      -0.00041081      -3.73435191 F F F
 Cu            34.64715970      21.19758824      38.48693344       0.00000000       0.00000000       0.00000000       0.00138477       0.00134652      -0.00067195      -3.73929028 F F F
 Cu             6.76910835      33.26557694      26.24197071       0.00000000       0.00000000       0.00000000       0.00018905       0.00011487      -0.00022965      -3.28919114 F F F
 Cu            52.12364275      38.84685907      32.78466501       0.00000000       0.00000000       0.00000000      -0.00085979      -0.00115491       0.00149186      -2.96927191 F F F
 Cu            22.38632306      21.20138782       9.64207001       0.00000000       0.00000000       0.00000000      -0.00064686      -0.00060964      -0.00010936      -3.06059663 F F F
 Cu            29.68946915      16.87593766      28.46421490       0.00000000       0.00000000       0.00000000       0.00001202      -0.00010853      -0.00022435      -3.73347616 F F F
 Cu            38.81254283      34.77493811      32.62119944       0.00000000       0.00000000       0.00000000      -0.00068743       0.00060738      -0.00019238      -3.64430431 F F F
 Cu            32.18672200      16.56944423      28.86111117       0.00000000       0.00000000       0.00000000      -0.00001233      -0.00009791      -0.00024757      -3.74168790 F F F
 Cu            52.40811775      36.70565365      24.49532068       0.00000000       0.00000000       0.00000000      -0.00012670      -0.00099602       0.00156537      -3.23873189 F F F
 Cu            31.01279298      46.55967497      40.96652439       0.00000000       0.00000000       0.00000000      -0.00074437       0.00044833      -0.00002296      -3.88716273 F F F
 Cu            35.08865592      46.25540539      42.51931255       0.00000000       0.00000000       0.00000000      -0.00077491       0.00123824      -0.00033646      -3.62998478 F F F
 Cu            28.86836542      45.47147179      40.94430631       0.00000000       0.00000000       0.00000000      -0.00086560       0.00048477       0.00029083      -3.42037509 F F F
 Cu            34.22650487      45.08588359      39.38483569       0.00000000       0.00000000       0.00000000      -0.00048327       0.00126695       0.00028961      -3.74575637 F F F
 Cu            12.67978849      18.22684106      18.17363710       0.00000000       0.00000000       0.00000000      -0.00036750       0.00009546       0.00016196      -2.96852779 F F F
 Cu            36.62923869      29.55735077      13.10998351       0.00000000       0.00000000       0.00000000      -0.00108794      -0.00011494      -0.00011074      -3.69984440 F F F
 Cu            19.92578268      34.60357959      22.25241514       0.00000000       0.00000000       0.00000000      -0.00005470       0.00022975      -0.00017159      -3.63914723 F F F
 Cu            36.73349113      22.66679674      21.20357560       0.00000000       0.00000000       0.00000000      -0.00057891      -0.00014018      -0.00038191      -3.73800464 F F F
 Cu            38.32434173      24.18578831      43.76336825       0.00000000       0.00000000       0.00000000       0.00139095       0.00236923      -0.00158168      -3.75008628 F F F
 Cu            25.14939677      18.39786420      34.13372175       0.00000000       0.00000000       0.00000000       0.00072267       0.00032347      -0.00021942      -3.75206383 F F F
 Cu            30.92095964      27.56538421      43.30399562       0.00000000       0.00000000       0.00000000       0.00024446       0.00012088      -0.00029952      -3.74857241 F F F
 Cu            31.82585775      18.73163571      19.71317834       0.00000000       0.00000000       0.00000000      -0.00045708      -0.00049570      -0.00021128      -3.71862139 F F F
 Cu            26.00318656      35.16220491      24.60635589       0.00000000       0.00000000       0.00000000      -0.00008350       0.00020378      -0.00025135      -3.74769243 F F F
 Cu            28.44156685      49.05140838      28.74039559       0.00000000       0.00000000       0.00000000      -0.00001093       0.00013862       0.00058789      -3.70291448 F F F
 Cu            32.74457599      26.92577530      15.58756703       0.00000000       0.00000000       0.00000000      -0.00070507      -0.00022307      -0.00040101      -3.81384114 F F F
 Cu            36.25632129      38.67699998      42.79421670       0.00000000       0.00000000       0.00000000       0.00025052       0.00171175      -0.00016356      -3.84932783 F F F
 Cu            29.65871790      44.15078165      13.85579361       0.00000000       0.00000000       0.00000000       0.00090906      -0.00111903       0.00021391      -3.62946964 F F F
 Cu            32.64491946      10.91030164      30.19711421       0.00000000       0.00000000       0.00000000      -0.00045326      -0.00017763       0.00032209      -3.73233570 F F F
 Cu            46.91442883      25.24583315      39.94948605       0.00000000       0.00000000       0.00000000       0.00091034      -0.00260594       0.00027866      -3.72992841 F F F
 Cu            23.70559817      27.97141587      40.54075353       0.00000000       0.00000000       0.00000000       0.00026078       0.00009786      -0.00035079      -3.74299480 F F F
 Cu            38.16125603      48.13336989      33.59844561       0.00000000       0.00000000       0.00000000       0.00018158       0.00098412      -0.00008135      -3.72428226 F F F
 Cu            27.66491349       7.56066651      23.37160513       0.00000000       0.00000000       0.00000000      -0.00045078      -0.00060805       0.00022885      -3.30074778 F F F
 Cu             7.04320733      25.35133243      29.10747771       0.00000000       0.00000000       0.00000000       0.00013725       0.00005591      -0.00014959      -3.37876927 F F F
 Cu            30.72493957      30.89272754      31.44824356       0.00000000       0.00000000       0.00000000      -0.00072779       0.00023845      -0.00049639      -3.66911502 F F F
 Cu            23.26556888      39.01552841      14.15766328       0.00000000       0.00000000       0.00000000       0.00072504       0.00011948       0.00001253      -3.73471988 F F F
 Cu            34.08553367      35.81543307      32.79947734       0.00000000       0.00000000       0.00000000      -0.00056698       0.00131108      -0.00102481      -3.53729362 F F F
 Cu            39.78163946      31.30776815      19.09282521       0.00000000       0.00000000       0.00000000      -0.00067877      -0.00031202       0.00032809      -3.71065784 F F F
 Cu            49.71886859      25.38661815      33.93855930       0.00000000       0.00000000       0.00000000       0.00011811      -0.00225725       0.00011266      -3.62735606 F F F
 Cu            34.62351882      32.29319478      29.89475040       0.00000000       0.00000000       0.00000000      -0.00064329       0.00008393      -0.00020342      -3.65764784 F F F
 Cu            38.13736155      38.77205750      47.52078338       0.00000000       0.00000000       0.00000000      -0.00062430       0.00254047       0.00029774      -3.30689953 F F F
 Cu            31.43747484      16.93954831      41.26586895       0.00000000       0.00000000       0.00000000       0.00107201       0.00037058      -0.00014071      -3.75148374 F F F
 Cu            11.31216855      13.04143801      37.33026075       0.00000000       0.00000000       0.00000000       0.00089635      -0.00033749       0.00028730      -2.90234500 F F F
 Cu            11.42812694      18.08905071      32.43815112       0.00000000       0.00000000       0.00000000       0.00019350      -0.00031997       0.00005754      -3.62802813 F F F
 Cu            35.20224862      41.14102001      18.77191833       0.00000000       0.00000000       0.00000000       0.00016171      -0.00008040      -0.00095760      -3.71852086 F F F
 Cu            31.06922015      15.23202272      19.64239895       0.00000000       0.00000000       0.00000000      -0.00042832      -0.00059925      -0.00009666      -3.74607465 F F F
 Cu            14.36078789      31.59364634      35.53884053       0.00000000       0.00000000       0.00000000       0.00020182      -0.00031400      -0.00035058      -3.70829371 F F F
 Cu            34.52926896      14.69156175      38.14947363       0.00000000       0.00000000       0.00000000       0.00105962       0.00073029       0.00000973      -3.71965836 F F F
 Cu            34.80971371      35.05273118      22.74908794       0.00000000       0.00000000       0.00000000       0.00008107      -0.00024051      -0.00021597      -3.71395671 F F F
 Cu            45.76974160      28.11843733      17.95785355       0.00000000       0.00000000       0.00000000      -0.00074515       0.00018002       0.00045175      -3.70750330 F F F
 Cu            18.62347296      13.33397188      32.60185871       0.00000000       0.00000000       0.00000000       0.00046216       0.00017126       0.00021092      -3.72054101 F F F
 Cu            13.73634734      26.32646321      43.91687589       0.00000000       0.00000000       0.00000000       0.00040613      -0.00007567      -0.00030631      -3.54253679 F F F
 Cu            37.79915935      40.89752740      46.25023287       0.00000000       0.00000000       0.00000000      -0.00027215       0.00242459      -0.00001745      -3.52411584 F F F
 Cu            22.90975946      44.66726126      39.46641862       0.00000000       0.00000000       0.00000000      -0.00035624       0.00022972       0.00000109      -3.49742817 F F F
 Cu            29.44627669      25.60212291       8.10259929       0.00000000       0.00000000       0.00000000      -0.00058156      -0.00083224      -0.00008558      -3.37324959 F F F
 Cu            40.12056741      20.42928219      46.92480503       0.00000000       0.00000000       0.00000000       0.00077893       0.00173479      -0.00192059      -3.53078476 F F F
 Cu            18.62865935      27.46337285      46.77550038       0.00000000       0.00000000       0.00000000       0.00072234       0.00017877      -0.00011704      -3.64724095 F F F
 Cu            13.35175775      16.52765028      38.84015061       0.00000000       0.00000000       0.00000000       0.00067612      -0.00012145       0.00016358      -3.62297901 F F F
 Cu            37.46349556      16.69834364      14.84888524       0.00000000       0.00000000       0.00000000      -0.00063946      -0.00029171      -0.00012450      -3.46341671 F F F
 Cu             9.20237670      33.44142937      25.83543607       0.00000000       0.00000000       0.00000000       0.00019454       0.00010381      -0.00028817      -3.69133009 F F F
 Cu            37.74605359      16.28065144      47.46839725       0.00000000       0.00000000       0.00000000       0.00114433       0.00110708      -0.00080816      -3.03586991 F F F
 Cu            32.09252660      37.65575552      19.42895224       0.00000000       0.00000000       0.00000000      -0.00001151       0.00092486      -0.00095310      -3.66922866 F F F
 Cu            32.73863959      35.94632391      38.14161170       0.00000000       0.00000000       0.00000000      -0.00078608       0.00091333      -0.00005251      -3.66354327 F F F
 Cu            21.45430345      37.82224866      48.16789242       0.00000000       0.00000000       0.00000000       0.00035776       0.00006967       0.00007142      -3.51151558 F F F
 Cu            25.15599401      36.60338878      34.90510500       0.00000000       0.00000000       0.00000000       0.00014127       0.00010382      -0.00013598      -3.62617274 F F F
 Cu            26.75998263      20.38215041      33.43437406       0.00000000       0.00000000       0.00000000       0.00069165       0.00025955      -0.00027143      -3.73819176 F F F
 Cu            40.17904534      25.30962063      18.51800438       0.00000000       0.00000000       0.00000000      -0.00069993       0.00001980      -0.00011785      -3.72285688 F F F
 Cu            16.36868889      41.64573947      17.80439031       0.00000000       0.00000000       0.00000000       0.00019632       0.00057625      -0.00009858      -3.51517167 F F F
 Cu            38.81661511      13.39192107      20.55420826       0.00000000       0.00000000       0.00000000      -0.00081878      -0.00059984      -0.00029795      -3.76550588 F F F
 Cu            30.78544865      38.06748880      17.36570193       0.00000000       0.00000000       0.00000000       0.00067044       0.00112477      -0.00134232      -3.72991963 F F F
 Cu            27.90242286      32.01310304      23.61052094       0.00000000       0.00000000       0.00000000      -0.00031467       0.00012648      -0.00004977      -3.60782485 F F F
 Cu            20.04988983      26.90543578      50.00703725       0.00000000       0.00000000       0.00000000       0.00078234       0.00016128      -0.00016138      -3.13949936 F F F
 Cu            44.58927595      30.51673247      18.86193569       0.00000000       0.00000000       0.00000000      -0.00047942      -0.00025078       0.00057725      -3.68317175 F F F
 Cu            39.83080721      20.54751272      25.40367836       0.00000000       0.00000000       0.00000000      -0.00032882      -0.00030230      -0.00042329      -3.74605893 F F F
 Cu            37.67158444      36.35918106      36.57040792       0.00000000       0.00000000       0.00000000      -0.00111411       0.00182239      -0.00088619      -3.80131635 F F F
 Cu            42.64249505      35.88278126      12.04932143       0.00000000       0.00000000       0.00000000       0.00070642       0.00039544       0.00029155      -3.58535066 F F F
 Cu             9.07393323      36.22536644      31.62820808       0.00000000       0.00000000       0.00000000       0.00028707      -0.00017103      -0.00015194      -3.52797647 F F F
 Cu            28.39420366      28.50981831      28.48331070       0.00000000       0.00000000       0.00000000      -0.00067245      -0.00019349      -0.00013806      -3.76946912 F F F
 Cu            29.70890881      33.50452010      52.96662836       0.00000000       0.00000000       0.00000000       0.00006793      -0.00034674       0.00012190      -2.77186593 F F F
 Cu            16.55086166      16.74443710      37.50678554       0.00000000       0.00000000       0.00000000       0.00057902       0.00006266       0.00014213      -3.74869639 F F F
 Cu            42.08017918      45.50271962      31.86808277       0.00000000       0.00000000       0.00000000       0.00004919       0.00012323       0.00002477      -3.57267947 F F F
 Cu            22.49146564      32.62474105      30.55500642       0.00000000       0.00000000       0.00000000      -0.00008999      -0.00016819      -0.00029712      -3.73521332 F F F
 Cu            43.63855123      38.76142148      44.95735619       0.00000000       0.00000000       0.00000000      -0.00053442       0.00240550       0.00027949      -3.44774453 F F F
 Cu            33.22539875      26.79374746       8.04247515       0.00000000       0.00000000       0.00000000      -0.00066759      -0.00036797      -0.00045079      -3.43252050 F F F
 Cu            38.68155626      27.15064012      36.27056013       0.00000000       0.00000000       0.00000000       0.00033556       0.00073726      -0.00059215      -3.70527779 F F F
 Cu            31.19791281      34.82657078      31.20855050       0.00000000       0.00000000       0.00000000      -0.00004739       0.00017202      -0.00057436      -3.74123218 F F F
 Cu            12.34290608      30.16221392      15.36627252       0.00000000       0.00000000       0.00000000      -0.00024570       0.00019926      -0.00013240      -2.95064166 F F F
 Cu            22.63385535      38.10186566      27.97827856       0.00000000       0.00000000       0.00000000       0.00013202       0.00022762      -0.00017669      -3.76776421 F F F
 Cu            40.91973635      20.49066831      44.44214043       0.00000000       0.00000000       0.00000000       0.00088365       0.00169869      -0.00193067      -3.62603242 F F F
 Cu             7.53233114      23.69011953      31.25545661       0.00000000       0.00000000       0.00000000       0.00039447       0.00006447      -0.00006033      -3.50188789 F F F
 Cu            25.72630817      40.94772221      48.97842100       0.00000000       0.00000000       0.00000000      -0.00011591      -0.00011887      -0.00001697      -3.32303041 F F F
 Cu            47.99592096      35.93220494      24.49606181       0.00000000       0.00000000       0.00000000      -0.00019056      -0.00074355       0.00106707      -3.61031604 F F F
 Cu            26.29134134      35.43464795      18.48216081       0.00000000       0.00000000       0.00000000      -0.00198820      -0.00105348       0.00049293      -3.59527526 F F F
 Cu            38.11918076      13.86151921      44.31350033       0.00000000       0.00000000       0.00000000       0.00108046       0.00113840      -0.00077786      -3.02709166 F F F
 Cu            18.91998230      24.07903433      17.79592754       0.00000000       0.00000000       0.00000000      -0.00048291       0.00005983      -0.00025469      -3.75410275 F F F
 Cu            38.06648105      29.81765794      20.57957997       0.00000000       0.00000000       0.00000000      -0.00066555      -0.00013079       0.00001695      -3.72447680 F F F
 Cu            23.55766785      36.27073861      32.79234899       0.00000000       0.00000000       0.00000000       0.00036440      -0.00026914      -0.00034651      -3.65838061 F F F
 Cu            37.62629477      26.11635424      42.18870601       0.00000000       0.00000000       0.00000000       0.00022671       0.00206677      -0.00065682      -3.74419896 F F F
 Cu            27.23920165      26.45641415      34.59483283       0.00000000       0.00000000       0.00000000       0.00034811       0.00009424      -0.00064997      -3.68066054 F F F
 Cu            35.57183628      49.67310981      18.48423109       0.00000000       0.00000000       0.00000000       0.00061133       0.00016219       0.00039556      -3.33939600 F F F
 Cu            35.74356867      36.13300436      29.64458532       0.00000000       0.00000000       0.00000000      -0.00007731       0.00007610      -0.00026228      -3.75096098 F F F
 Cu            17.80365519      11.60728528      30.76186918       0.00000000       0.00000000       0.00000000       0.00047532      -0.00000674       0.00022729      -3.58355336 F F F
 Cu            14.26487493      13.61452496      30.23817086       0.00000000       0.00000000       0.00000000       0.00045455      -0.00007848       0.00009985      -3.56759413 F F F
 Cu            37.06801475      10.65652723      36.22393536       0.00000000       0.00000000       0.00000000       0.00034178       0.00001013       0.00004389      -3.78740372 F F F
 Cu            41.29904661      39.96911762      19.85902858       0.00000000       0.00000000       0.00000000       0.00034994      -0.00050984       0.00063645      -3.80171755 F F F
 Cu            50.94239106      34.43761544      27.10785487       0.00000000       0.00000000       0.00000000      -0.00066290      -0.00117979       0.00141868      -3.78184612 F F F
 Cu            22.48834027      35.96746135      46.88226477       0.00000000       0.00000000       0.00000000       0.00047883       0.00012104       0.00011543      -3.71453972 F F F
 Cu            23.81009329      39.17728604      21.83531585       0.00000000       0.00000000       0.00000000       0.00003079       0.00045747      -0.00005598      -3.60194383 F F F
 Cu            26.36361791      19.23153332      26.65706675       0.00000000       0.00000000       0.00000000      -0.00003573      -0.00026283      -0.00028549      -3.75382276 F F F
 Cu            13.35517030      29.84118656      32.44859315       0.00000000       0.00000000       0.00000000       0.00014663      -0.00015122      -0.00051043      -3.69495428 F F F
 Cu            32.03957494      17.09076249      46.05789642       0.00000000       0.00000000       0.00000000       0.00095026       0.00037770      -0.00050868      -3.67394419 F F F
 Cu            33.61064389      52.67493919      34.51185597       0.00000000       0.00000000       0.00000000      -0.00003473       0.00094806      -0.00025800      -3.18267930 F F F
 Cu            17.14893347      21.07665962      23.25215527       0.00000000       0.00000000       0.00000000      -0.00002457      -0.00020918      -0.00013193      -3.71146404 F F F
 Cu            27.76395552       7.34870669      25.81858681       0.00000000       0.00000000       0.00000000      -0.00036224      -0.00050947       0.00021560      -3.31349753 F F F
 Cu            36.98736874       6.83999817      33.73436477       0.00000000       0.00000000       0.00000000      -0.00045361      -0.00023465       0.00019639      -3.22065683 F F F
 Cu            39.89111713      21.70824129      13.43348030       0.00000000       0.00000000       0.00000000      -0.00072140       0.00007232      -0.00029717      -3.48820552 F F F
 Cu            48.62546972      43.81285870      35.80701911       0.00000000       0.00000000       0.00000000      -0.00025303      -0.00102649       0.00047516      -3.28308015 F F F
 Cu            50.27165644      39.86480245      34.27953780       0.00000000       0.00000000       0.00000000      -0.00040990      -0.00078468       0.00152876      -3.31423079 F F F
 Cu            31.36114986       8.96939968      28.33837944       0.00000000       0.00000000       0.00000000      -0.00029825      -0.00053154      -0.00011447      -3.61261639 F F F
 Cu            27.76707289      24.53593379      42.95335132       0.00000000       0.00000000       0.00000000       0.00064448       0.00018936      -0.00053864      -3.74703386 F F F
 Cu            23.06293741      31.56858022      24.77175078       0.00000000       0.00000000       0.00000000      -0.00015520       0.00008832      -0.00020173      -3.59218415 F F F
 Cu            24.20762315      40.62831691      42.10975436       0.00000000       0.00000000       0.00000000       0.00006105       0.00001807       0.00015584      -3.63268600 F F F
 Cu            27.34714128      36.99994455      50.87555644       0.00000000       0.00000000       0.00000000       0.00058087      -0.00008278       0.00015110      -3.34120031 F F F
 Cu             8.75569612      26.77662802      25.52338946       0.00000000       0.00000000       0.00000000      -0.00004163       0.00003283      -0.00047886      -3.67320781 F F F
 Cu            14.89094521      16.26170329      42.14809068       0.00000000       0.00000000       0.00000000       0.00078473       0.00000245       0.00017876      -3.30092807 F F F
 Cu            33.34037172      31.99049434      27.71924409       0.00000000       0.00000000       0.00000000      -0.00039913      -0.00006466      -0.00023991      -3.71307388 F F F
 Cu            21.18771706      51.18475171      25.18125426       0.00000000       0.00000000       0.00000000      -0.00003877       0.00047784       0.00095135      -3.30625953 F F F
 Cu            11.48825399      26.60974953      45.00432962       0.00000000       0.00000000       0.00000000       0.00019123      -0.00026262      -0.00025399      -3.07661969 F F F
 Cu            43.32049478      35.01209499      45.85081996       0.00000000       0.00000000       0.00000000      -0.00104944       0.00246642       0.00083156      -3.58910742 F F F
 Cu            26.68444273      21.95064514      49.01867236       0.00000000       0.00000000       0.00000000       0.00097671       0.00021023      -0.00058757      -3.32038400 F F F
 Cu            30.63003084      26.65028744      32.06947116       0.00000000       0.00000000       0.00000000       0.00041587       0.00016746      -0.00089961      -3.71743854 F F F
 Cu            28.59567246      27.74657384       7.12796211       0.00000000       0.00000000       0.00000000      -0.00035379      -0.00072873      -0.00025141      -3.10534560 F F F
 Cu            16.20450952      34.68534476      16.72110050       0.00000000       0.00000000       0.00000000       0.00000338       0.00053585      -0.00039791      -3.76835514 F F F
 Cu            39.00368118      18.40445289      16.19493495       0.00000000       0.00000000       0.00000000      -0.00061883      -0.00019212      -0.00020483      -3.58491797 F F F
 Cu            35.79597841      38.74547378       8.58937119       0.00000000       0.00000000       0.00000000      -0.00115482       0.00792545       0.00392616      -2.92339118 F F F
 Cu            19.62411092      37.54227232      19.20280989       0.00000000       0.00000000       0.00000000       0.00008561       0.00040048      -0.00019725      -3.70971966 F F F
 Cu            31.27208857      33.85809301      38.23103621       0.00000000       0.00000000       0.00000000      -0.00054805       0.00043292      -0.00012188      -3.84742459 F F F
 Cu            15.24459665      42.29880248      26.57859385       0.00000000       0.00000000       0.00000000       0.00028170       0.00003080       0.00007441      -3.67913069 F F F
 Cu            25.37775208      11.15364920      30.51327236       0.00000000       0.00000000       0.00000000       0.00017369      -0.00007177       0.00006790      -3.76724834 F F F
 Cu            14.83706228      25.57876195      18.48832550       0.00000000       0.00000000       0.00000000       0.00047702       0.00107324       0.00054357      -3.75630498 F F F
 Cu            27.33566959      10.61598018      36.27608641       0.00000000       0.00000000       0.00000000       0.00102932       0.00045780      -0.00005875      -3.64723846 F F F
 Cu            14.27549851      34.88123991      19.36423468       0.00000000       0.00000000       0.00000000       0.00015218       0.00045193      -0.00035305      -3.65943807 F F F
 Cu            40.03997750      15.18938036      27.10073181       0.00000000       0.00000000       0.00000000      -0.00041277      -0.00059674      -0.00061545      -3.74286364 F F F
 Cu            48.37092424      25.89770675      27.77940400       0.00000000       0.00000000       0.00000000      -0.00066059      -0.00112112       0.00104433      -3.66280294 F F F
 Cu            19.59313946      23.61934817      12.06973637       0.00000000       0.00000000       0.00000000      -0.00063828      -0.00027745      -0.00028444      -3.56597026 F F F
 Cu            43.27714926      23.44232119      22.57660295       0.00000000       0.00000000       0.00000000      -0.00063312      -0.00013983      -0.00010014      -3.75843573 F F F
 Cu            19.04734939      50.78615076      28.86187304       0.00000000       0.00000000       0.00000000      -0.00024053       0.00056367       0.00072365      -3.29077293 F F F
 Cu            32.64128517      25.79588477      42.37047954       0.00000000       0.00000000       0.00000000       0.00041439       0.00035253      -0.00032885      -3.74628078 F F F
 Cu            30.30123121      27.21334260      38.86699033       0.00000000       0.00000000       0.00000000       0.00017644       0.00044339      -0.00056243      -3.71921495 F F F
 Cu            18.26071005      11.79311195      28.33872544       0.00000000       0.00000000       0.00000000       0.00009921      -0.00015367       0.00019046      -3.65939133 F F F