    5000
 Properties=species:S:1:pos:R:3:velocities:R:3:forces:R:3:local_energy:R:1:fix_atoms:S:3 Lattice="59.9897947230       0.0000000000    0.0000000000    0.0000000000   60.0301708344    0.0000000000    0.0000000000    0.0000000000   59.9260858394" temperature=0.00000000 pressure=2.34049056 time_step=1.0000 time=85.000000 energy=-24403.273479 energy_soap=-7499.51138642  energy_2b=-12371.57199293 energy_3b=0.00000000 energy_core_pot=0.00000000 energy_vdw=0.00000000 energy_exp=0.00000000 energy_xps=0.00000000 virial="-6.89505757          -2.50654116      4.23028902     -2.50654116      7.66550067    -11.67884666      4.23028902    -11.67884666      0.17531621" stress="0.00003195            0.00001161     -0.00001960      0.00001161     -0.00003552      0.00005412     -0.00001960      0.00005412     -0.00000081" volume=215805.678033 step=85
 Cu            27.70172727      49.58156489      39.76713303       0.00000000       0.00000000       0.00000000       0.00049857      -0.00012397      -0.00073293      -3.60293987 F F F
 Cu            38.16307011      25.32279044       9.01576047       0.00000000       0.00000000       0.00000000      -0.00007023       0.00074373       0.00048436      -3.25612754 F F F
 Cu            27.86180619      26.95777991      10.44079012       0.00000000       0.00000000       0.00000000      -0.00301207      -0.00129655      -0.00052796      -3.93190899 F F F
 Cu            46.64223567      45.02701709      25.53070214       0.00000000       0.00000000       0.00000000       0.00063026      -0.00093968      -0.00030562      -3.20377872 F F F
 Cu            49.57734082      38.53908539      36.36343195       0.00000000       0.00000000       0.00000000      -0.00042617       0.00001067       0.00129709      -3.02669779 F F F
 Cu            35.57542591      48.29138609      22.40203729       0.00000000       0.00000000       0.00000000      -0.00046528       0.00019942      -0.00076249      -4.02082757 F F F
 Cu            31.97126529      26.99982423       7.56129911       0.00000000       0.00000000       0.00000000      -0.00048299       0.00032880       0.00031175      -3.39508711 F F F
 Cu            36.12970654      24.06289077      16.00628163       0.00000000       0.00000000       0.00000000       0.00110067      -0.00016641      -0.00036600      -3.96742778 F F F
 Cu             8.24999419      26.91529850      29.71522640       0.00000000       0.00000000       0.00000000       0.00035068       0.00066592       0.00039635      -3.31405317 F F F
 Cu             7.94718292      36.55227034      32.74211787       0.00000000       0.00000000       0.00000000       0.00061156       0.00013043       0.00047668      -3.00795318 F F F
 Cu            29.90339639      47.16325589      32.33701385       0.00000000       0.00000000       0.00000000      -0.00005537       0.00041416      -0.00089878      -3.70606143 F F F
 Cu            25.66966879      48.22020007      39.12088706       0.00000000       0.00000000       0.00000000       0.00069902      -0.00006527      -0.00051162      -3.08273097 F F F
 Cu            52.68361860      31.50621978      29.30728285       0.00000000       0.00000000       0.00000000      -0.00055828       0.00043407       0.00121994      -3.17005662 F F F
 Cu            26.38278923      45.76959591      38.76214559       0.00000000       0.00000000       0.00000000       0.00041177      -0.00006707      -0.00071874      -4.10231561 F F F
 Cu            27.43611866      29.18998017      48.26599481       0.00000000       0.00000000       0.00000000       0.00029028      -0.00097606       0.00003310      -3.90648472 F F F
 Cu            16.61196589      14.22381142      21.52105106       0.00000000       0.00000000       0.00000000       0.00053360       0.00036059      -0.00017292      -3.53563012 F F F
 Cu            36.71039656      27.20376972      13.44229119       0.00000000       0.00000000       0.00000000      -0.00028476       0.00032100      -0.00002751      -3.79421686 F F F
 Cu            18.46079568      45.48695920      15.85802819       0.00000000       0.00000000       0.00000000      -0.00012830      -0.00081926      -0.00117830      -2.74717939 F F F
 Cu            35.74539054      30.31193161      27.71041256       0.00000000       0.00000000       0.00000000      -0.00036327       0.00073502      -0.00032616      -3.86298748 F F F
 Cu            41.98048622      41.74614710      20.95224638       0.00000000       0.00000000       0.00000000      -0.00021188      -0.00007644       0.00029302      -3.96899547 F F F
 Cu            41.74286990      42.09675154      37.36889379       0.00000000       0.00000000       0.00000000      -0.00036471       0.00061488      -0.00007188      -3.95119364 F F F
 Cu            29.83451770      16.20583967      27.67552949       0.00000000       0.00000000       0.00000000       0.00046208      -0.00020182       0.00033427      -3.61636065 F F F
 Cu            49.05172894      24.32080330      22.85769298       0.00000000       0.00000000       0.00000000      -0.00024430       0.00035317       0.00072222      -3.88513780 F F F
 Cu            28.21998464      38.26008533      20.35383289       0.00000000       0.00000000       0.00000000      -0.00045027       0.00066586      -0.00075343      -3.84660061 F F F
 Cu            39.97189824      33.41987214      47.17586585       0.00000000       0.00000000       0.00000000      -0.00050801      -0.00012153       0.00000848      -3.53196538 F F F
 Cu            17.61373562      36.24703461      42.15926076       0.00000000       0.00000000       0.00000000       0.00063957      -0.00030756       0.00009854      -3.86521289 F F F
 Cu            42.55031595      38.19365297      17.74371283       0.00000000       0.00000000       0.00000000      -0.00038821       0.00009560       0.00050989      -3.96955375 F F F
 Cu            31.44151755      35.33585381      22.53119326       0.00000000       0.00000000       0.00000000      -0.00039459       0.00007800      -0.00093224      -3.85204112 F F F
 Cu            30.01371889      29.39640914      52.19969838       0.00000000       0.00000000       0.00000000      -0.00034529      -0.00047073       0.00014395      -3.16884315 F F F
 Cu            36.95807299      25.91197587      33.60097692       0.00000000       0.00000000       0.00000000       0.00000198      -0.00008024       0.00036978      -3.92587958 F F F
 Cu            32.14433665      48.74482978      18.50662625       0.00000000       0.00000000       0.00000000      -0.00021361       0.00053947      -0.00070401      -3.49316824 F F F
 Cu            31.86286304      23.84811319      16.72514229       0.00000000       0.00000000       0.00000000       0.00091079      -0.00010571      -0.00060280      -4.00716885 F F F
 Cu            36.46684589      34.85409547      16.28523881       0.00000000       0.00000000       0.00000000      -0.00054940       0.00010190      -0.00036767      -4.23960298 F F F
 Cu            31.38655207      14.11782681      36.28622432       0.00000000       0.00000000       0.00000000      -0.00014194      -0.00066819      -0.00000250      -4.24632034 F F F
 Cu            11.41785015      43.14094937      30.72880314       0.00000000       0.00000000       0.00000000       0.00077307      -0.00007375       0.00089610      -3.11075159 F F F
 Cu            26.79777411      21.62466836      22.13579068       0.00000000       0.00000000       0.00000000       0.00049138       0.00046020      -0.00050407      -3.94667510 F F F
 Cu            13.84158907      22.61076622      24.46149140       0.00000000       0.00000000       0.00000000       0.00029363       0.00021334       0.00028072      -4.08603390 F F F
 Cu            37.27856331      33.49464893      38.41897328       0.00000000       0.00000000       0.00000000       0.00018048      -0.00122343      -0.00053906      -4.35221331 F F F
 Cu            17.46446684      42.99060719      24.18832481       0.00000000       0.00000000       0.00000000      -0.00020221       0.00097904      -0.00039394      -3.71167756 F F F
 Cu            29.99529158      46.07083219      20.81538459       0.00000000       0.00000000       0.00000000      -0.00037150       0.00038221      -0.00107325      -3.67907491 F F F
 Cu            43.47937368      16.23325736      31.89839617       0.00000000       0.00000000       0.00000000      -0.00002977       0.00019619       0.00030536      -3.92740757 F F F
 Cu            36.34453805      23.81259217      29.32679955       0.00000000       0.00000000       0.00000000       0.00009574      -0.00004052       0.00005123      -3.86118239 F F F
 Cu            15.43689190      21.06984343      15.19689669       0.00000000       0.00000000       0.00000000       0.00016808      -0.00030908       0.00018618      -2.92447635 F F F
 Cu            37.76547742      41.49686946      29.31412771       0.00000000       0.00000000       0.00000000      -0.00025792       0.00043805      -0.00031654      -3.57813422 F F F
 Cu            34.69327377      17.46459649      43.33372972       0.00000000       0.00000000       0.00000000       0.00023838      -0.00099556      -0.00039804      -3.77382693 F F F
 Cu            47.23868379      25.82926332      18.45613906       0.00000000       0.00000000       0.00000000       0.00033007       0.00051890       0.00061181      -3.49476783 F F F
 Cu            10.45568898      27.93228783      34.70379529       0.00000000       0.00000000       0.00000000       0.00050913       0.00017773       0.00039154      -3.58329184 F F F
 Cu            21.71816316      40.47719108      43.13798371       0.00000000       0.00000000       0.00000000       0.00086966      -0.00052495      -0.00004464      -3.77928520 F F F
 Cu            31.83516008      31.66717057      22.97447206       0.00000000       0.00000000       0.00000000      -0.00038822       0.00051242      -0.00071384      -3.96708633 F F F
 Cu            32.20152103      25.63394294      39.97444169       0.00000000       0.00000000       0.00000000       0.00013040      -0.00070772      -0.00001630      -3.98511856 F F F
 Cu            18.37014295      20.67257062      47.83886739       0.00000000       0.00000000       0.00000000      -0.00010599      -0.00073030       0.00045758      -2.94242596 F F F
 Cu            28.06717576      39.31506764      18.03917113       0.00000000       0.00000000       0.00000000      -0.00035583       0.00038070      -0.00088251      -3.76532609 F F F
 Cu            35.75806039      21.33589727      15.07066904       0.00000000       0.00000000       0.00000000       0.00047706      -0.00007645      -0.00029069      -4.03121605 F F F
 Cu            42.55467951      24.42258186      42.75436929       0.00000000       0.00000000       0.00000000      -0.00014919      -0.00028892       0.00033440      -3.53971198 F F F
 Cu            41.25075088      17.39604309      47.12060738       0.00000000       0.00000000       0.00000000       0.00028956      -0.00119106      -0.00056591      -2.89083313 F F F
 Cu            40.46367118      34.70125673      38.75404393       0.00000000       0.00000000       0.00000000      -0.00079686       0.00020799       0.00045573      -3.99610337 F F F
 Cu            20.99341182      11.37824104      40.68400602       0.00000000       0.00000000       0.00000000      -0.00069975      -0.00040798      -0.00017636      -3.30783560 F F F
 Cu            52.87291136      29.05166034      30.29313751       0.00000000       0.00000000       0.00000000      -0.00056071       0.00045144       0.00083915      -3.17517769 F F F
 Cu            20.56279058      23.39442912      49.50660887       0.00000000       0.00000000       0.00000000       0.00025647      -0.00078696       0.00034397      -2.90349789 F F F
 Cu            16.64066851      27.48516085      36.42389737       0.00000000       0.00000000       0.00000000       0.00042168      -0.00004598       0.00027536      -3.71989275 F F F
 Cu             9.71121007      20.77861517      24.38695001       0.00000000       0.00000000       0.00000000       0.00028948       0.00049737       0.00046936      -3.17503978 F F F
 Cu            44.53606941      25.63014354      21.56688874       0.00000000       0.00000000       0.00000000      -0.00050706       0.00000356       0.00046617      -3.56850378 F F F
 Cu            18.94721281      50.39542922      33.95677960       0.00000000       0.00000000       0.00000000       0.00054023       0.00004111      -0.00005592      -3.04774235 F F F
 Cu            50.97326579      30.52391828      21.47885856       0.00000000       0.00000000       0.00000000      -0.00051892       0.00055893       0.00132889      -3.19484596 F F F
 Cu            40.89238855      39.94836318      38.43892089       0.00000000       0.00000000       0.00000000      -0.00056422       0.00060414      -0.00012463      -3.87436158 F F F
 Cu            12.96706707      23.75511412      30.30506153       0.00000000       0.00000000       0.00000000       0.00036176       0.00056736       0.00017984      -3.85239422 F F F
 Cu            27.24727206      27.57095480      46.45257880       0.00000000       0.00000000       0.00000000       0.00048389      -0.00083501      -0.00002567      -3.76377030 F F F
 Cu            36.13596761      39.33200674      43.14359652       0.00000000       0.00000000       0.00000000      -0.00032469      -0.00012436      -0.00053471      -3.96920031 F F F
 Cu            16.01474317      21.21702376      37.91037882       0.00000000       0.00000000       0.00000000       0.00007532       0.00012898       0.00027119      -3.91594477 F F F
 Cu            22.05547794      29.69662322      37.24044803       0.00000000       0.00000000       0.00000000       0.00034229      -0.00023565       0.00032096      -3.69795511 F F F
 Cu            28.39118182      13.00938700      13.37773202       0.00000000       0.00000000       0.00000000       0.00010182      -0.00013995       0.00148414      -3.00281424 F F F
 Cu            31.77845259      45.15998851      15.30160149       0.00000000       0.00000000       0.00000000      -0.00024935       0.00008590      -0.00087815      -3.46885868 F F F
 Cu            31.35599052      14.03182103      44.31672325       0.00000000       0.00000000       0.00000000       0.00011040      -0.00102616      -0.00050361      -4.16419606 F F F
 Cu            11.84180165      42.01939992      22.25463610       0.00000000       0.00000000       0.00000000      -0.00001764       0.00078027       0.00076963      -3.22101091 F F F
 Cu            41.25626958      44.26019560      43.84533957       0.00000000       0.00000000       0.00000000      -0.00071321       0.00019823      -0.00011153      -3.22807875 F F F
 Cu            14.57348665      43.83325918      38.45874561       0.00000000       0.00000000       0.00000000       0.00093376       0.00003803       0.00032964      -3.28403222 F F F
 Cu            39.52443601      40.64505953      33.74758148       0.00000000       0.00000000       0.00000000      -0.00035986       0.00067483      -0.00018599      -3.98032109 F F F
 Cu            18.81957766      39.43032709      46.09807833       0.00000000       0.00000000       0.00000000       0.00089284      -0.00046974       0.00020119      -3.45585025 F F F
 Cu            31.74009340      30.86671236      37.24247912       0.00000000       0.00000000       0.00000000      -0.00059609      -0.00029538      -0.00016002      -3.75696216 F F F
 Cu            32.71119207      22.48945705      28.22965899       0.00000000       0.00000000       0.00000000       0.00023338      -0.00027124      -0.00019225      -3.98178491 F F F
 Cu            15.28594212      36.25349930      41.40336184       0.00000000       0.00000000       0.00000000       0.00072921      -0.00009770       0.00048137      -4.17711043 F F F
 Cu            38.61676167      28.76699608      48.47427469       0.00000000       0.00000000       0.00000000      -0.00056493      -0.00056769       0.00005808      -3.71179221 F F F
 Cu            34.34275430      15.38465208      13.50054917       0.00000000       0.00000000       0.00000000       0.00017756      -0.00029548       0.00096767      -3.57159055 F F F
 Cu            19.26840882      34.36322240      33.85738680       0.00000000       0.00000000       0.00000000       0.00045916      -0.00013787       0.00020849      -3.95501735 F F F
 Cu            19.43877041      41.82078526      46.24242012       0.00000000       0.00000000       0.00000000       0.00091076      -0.00045028       0.00001555      -3.06041894 F F F
 Cu            42.15281868      15.94584405      16.77162718       0.00000000       0.00000000       0.00000000       0.00055955      -0.00074934       0.00174814      -3.47276674 F F F
 Cu             8.65780383      24.59023504      34.58923497       0.00000000       0.00000000       0.00000000      -0.00004543       0.00008371       0.00062873      -3.37185510 F F F
 Cu            51.21194846      31.44691411      36.39766128       0.00000000       0.00000000       0.00000000      -0.00022716      -0.00031908       0.00100372      -3.56803616 F F F
 Cu            29.80107976      27.55023174      22.19880094       0.00000000       0.00000000       0.00000000       0.00047368       0.00008700      -0.00051635      -4.14918785 F F F
 Cu            28.68865069      14.88560853      18.10456027       0.00000000       0.00000000       0.00000000       0.00012437       0.00041832       0.00120225      -3.80888407 F F F
 Cu            45.53198872      30.13173486      23.61442569       0.00000000       0.00000000       0.00000000      -0.00059078       0.00012178       0.00076789      -3.75420102 F F F
 Cu            40.36991670      28.05422701      18.79064952       0.00000000       0.00000000       0.00000000      -0.00003866       0.00024101       0.00019989      -3.88070145 F F F
 Cu            25.28175858      47.36557207      36.76995068       0.00000000       0.00000000       0.00000000       0.00046135       0.00003967      -0.00059765      -3.89835777 F F F
 Cu            42.27114033      29.94899575      41.25055564       0.00000000       0.00000000       0.00000000       0.00003189      -0.00024988       0.00029945      -4.25328999 F F F
 Cu            36.93400964      22.38957421      31.32418899       0.00000000       0.00000000       0.00000000      -0.00002655      -0.00018086       0.00009413      -3.83783322 F F F
 Cu            32.47562265      35.71391977      14.34768921       0.00000000       0.00000000       0.00000000      -0.00036125       0.00030317      -0.00091485      -3.88282791 F F F
 Cu            19.99395510      17.58836924      35.65926417       0.00000000       0.00000000       0.00000000       0.00013775       0.00025454       0.00012546      -4.05951821 F F F
 Cu            28.83044638      31.61694903      44.17646668       0.00000000       0.00000000       0.00000000       0.00023423      -0.00118745      -0.00012380      -4.11064095 F F F
 Cu            16.46634011      20.67780321      43.53239502       0.00000000       0.00000000       0.00000000      -0.00012516      -0.00031944       0.00039744      -3.16910169 F F F
 Cu            35.78350110      15.59281701      27.12305917       0.00000000       0.00000000       0.00000000       0.00032636      -0.00080120       0.00001451      -4.09972754 F F F
 Cu            40.57387022      10.46242946      24.21616538       0.00000000       0.00000000       0.00000000       0.00073852       0.00014106       0.00190337      -3.06040326 F F F
 Cu            47.26784532      45.83086359      29.05040352       0.00000000       0.00000000       0.00000000       0.00115020      -0.00122563      -0.00016226      -3.10659219 F F F
 Cu            19.51519547      49.01318417      19.91341026       0.00000000       0.00000000       0.00000000      -0.00002950       0.00116478      -0.00108948      -2.98289886 F F F
 Cu            37.34186434      12.47976370      37.21271585       0.00000000       0.00000000       0.00000000       0.00014449      -0.00049680      -0.00018636      -3.93239712 F F F
 Cu            48.94235313      33.12689846      22.42453421       0.00000000       0.00000000       0.00000000       0.00002824      -0.00054516       0.00095243      -3.72837011 F F F
 Cu            48.00562843      17.29969411      23.65357490       0.00000000       0.00000000       0.00000000       0.00014551       0.00015806       0.00008081      -3.23909238 F F F
 Cu            29.36362058      45.26857323      15.89469773       0.00000000       0.00000000       0.00000000      -0.00028600       0.00027108      -0.00088686      -3.55353444 F F F
 Cu            12.64322428      30.41924015      26.51824898       0.00000000       0.00000000       0.00000000       0.00026265       0.00046750       0.00030221      -3.67714946 F F F
 Cu            26.73444284      17.47053937      11.57579339       0.00000000       0.00000000       0.00000000      -0.00003772       0.00016846       0.00041317      -3.31066654 F F F
 Cu            45.70709178      35.08051510      14.41174553       0.00000000       0.00000000       0.00000000       0.00014549       0.00006328       0.00063160      -3.19809059 F F F
 Cu            49.71829368      25.03493553      18.66317182       0.00000000       0.00000000       0.00000000       0.00017861       0.00054942       0.00089708      -2.86329221 F F F
 Cu            42.00170803      37.40694457      26.62604655       0.00000000       0.00000000       0.00000000      -0.00046536       0.00007578       0.00056706      -4.00936040 F F F
 Cu            39.45086141      18.80617169      21.91331215       0.00000000       0.00000000       0.00000000      -0.00037523      -0.00031051       0.00009758      -3.77301897 F F F
 Cu            14.04980562      23.97142550      17.35287413       0.00000000       0.00000000       0.00000000       0.00036825      -0.00032516       0.00025125      -3.40716347 F F F
 Cu            16.74285761      30.06616035      40.67043484       0.00000000       0.00000000       0.00000000       0.00046051      -0.00016944       0.00039103      -3.81629063 F F F
 Cu            32.39333482      17.77514363      42.23753819       0.00000000       0.00000000       0.00000000       0.00001568      -0.00096787      -0.00023488      -3.39020613 F F F
 Cu            14.07935324      25.18164747      23.97385951       0.00000000       0.00000000       0.00000000       0.00045675       0.00025128       0.00028399      -3.98967219 F F F
 Cu            39.35375696      19.94598667      19.74248456       0.00000000       0.00000000       0.00000000      -0.00018715      -0.00063248      -0.00039499      -3.82683336 F F F
 Cu            41.26027082      11.80506804      38.79474178       0.00000000       0.00000000       0.00000000       0.00046427      -0.00047112       0.00017998      -3.31303899 F F F
 Cu            22.27960212      33.86003187      39.77389408       0.00000000       0.00000000       0.00000000       0.00039708      -0.00006575       0.00020350      -4.03959696 F F F
 Cu            28.47648872      50.98088209      20.98760906       0.00000000       0.00000000       0.00000000      -0.00010332       0.00066122      -0.00083228      -3.18371994 F F F
 Cu            19.33762348      34.50238019      41.15947649       0.00000000       0.00000000       0.00000000       0.00053841      -0.00031442       0.00003785      -4.00297562 F F F
 Cu            27.10753072      44.06771911      22.44843858       0.00000000       0.00000000       0.00000000      -0.00020663       0.00058227      -0.00082223      -4.37387365 F F F
 Cu            20.07260941      24.62397094      45.25973517       0.00000000       0.00000000       0.00000000       0.00001131      -0.00057265       0.00051040      -3.85171912 F F F
 Cu            24.43569383      33.40740867      51.99641860       0.00000000       0.00000000       0.00000000       0.00043352      -0.00077447      -0.00012735      -2.95422918 F F F
 Cu            43.47783811      47.53489981      37.18467565       0.00000000       0.00000000       0.00000000       0.00007044       0.00005621      -0.00078223      -3.21162855 F F F
 Cu            23.98893036      47.78992242      42.49972720       0.00000000       0.00000000       0.00000000       0.00089603      -0.00013239      -0.00026409      -3.17428596 F F F
 Cu            17.92357696      27.60882561      48.19254487       0.00000000       0.00000000       0.00000000       0.00013244      -0.00068011       0.00054952      -3.55126744 F F F
 Cu            29.98345086      26.25785620      40.86325022       0.00000000       0.00000000       0.00000000      -0.00000536      -0.00103482      -0.00016860      -3.75407870 F F F
 Cu            27.20704417      24.99503171      30.01613956       0.00000000       0.00000000       0.00000000       0.00041872       0.00005216      -0.00024189      -4.00692011 F F F
 Cu             8.19828755      27.38113104      33.95925395       0.00000000       0.00000000       0.00000000       0.00025201       0.00063877       0.00041201      -2.84253933 F F F
 Cu            38.46795199      22.19640604      41.70175306       0.00000000       0.00000000       0.00000000       0.00012238      -0.00070163       0.00005879      -4.06736784 F F F
 Cu            26.08674028      48.66103962      26.10056867       0.00000000       0.00000000       0.00000000      -0.00028322       0.00092042      -0.00132778      -3.84776583 F F F
 Cu            41.57065459      34.98141857      16.63430943       0.00000000       0.00000000       0.00000000      -0.00020777       0.00018299       0.00044752      -3.93263773 F F F
 Cu            35.62315578      13.73762592      41.34725323       0.00000000       0.00000000       0.00000000       0.00020824      -0.00082430      -0.00041714      -4.06638454 F F F
 Cu            30.37687796       8.58046837      32.87951022       0.00000000       0.00000000       0.00000000      -0.00044060      -0.00051244       0.00047226      -3.34611359 F F F
 Cu            15.69082777      26.43303171      38.49239096       0.00000000       0.00000000       0.00000000       0.00035820      -0.00011947       0.00036004      -4.21023510 F F F
 Cu            30.05943494      30.98151998       6.55285069       0.00000000       0.00000000       0.00000000       0.00005827       0.00069146      -0.00068194      -2.77594354 F F F
 Cu            33.91346067      11.05591661      17.98496663       0.00000000       0.00000000       0.00000000       0.00007542      -0.00059407       0.00104621      -3.32619397 F F F
 Cu            27.54942926      46.53991329      44.86836994       0.00000000       0.00000000       0.00000000       0.00107882      -0.00010388      -0.00078703      -3.19341876 F F F
 Cu            24.18841061      27.37019912      31.59586068       0.00000000       0.00000000       0.00000000       0.00033895      -0.00003060      -0.00014793      -4.08016918 F F F
 Cu            32.55894196      52.95348537      38.55458031       0.00000000       0.00000000       0.00000000       0.00017160       0.00060118      -0.00092740      -2.74861460 F F F
 Cu            33.03364794      40.30478291      47.36324509       0.00000000       0.00000000       0.00000000       0.00046001      -0.00040195      -0.00063877      -3.68052868 F F F
 Cu            34.41614703      49.65597973      18.38803846       0.00000000       0.00000000       0.00000000      -0.00025368       0.00036734      -0.00046295      -3.10769850 F F F
 Cu            27.93286453      10.38965412      36.16227931       0.00000000       0.00000000       0.00000000      -0.00038770      -0.00039332       0.00043835      -3.97215752 F F F
 Cu            19.07462829      35.72071483      24.50329982       0.00000000       0.00000000       0.00000000       0.00028531       0.00035188      -0.00005344      -3.86726409 F F F
 Cu            19.32164380      42.94157419      42.33042531       0.00000000       0.00000000       0.00000000       0.00087823      -0.00027536      -0.00004944      -4.11338710 F F F
 Cu            31.43324324      10.75494639      42.66430505       0.00000000       0.00000000       0.00000000      -0.00004391      -0.00100705      -0.00027653      -3.30767795 F F F
 Cu            38.47326536      22.87033036      37.33462376       0.00000000       0.00000000       0.00000000       0.00014291      -0.00011735       0.00016478      -3.76601741 F F F
 Cu            34.23415767      47.90446953      24.50501243       0.00000000       0.00000000       0.00000000      -0.00059439       0.00040972      -0.00088438      -4.03938664 F F F
 Cu            33.06094713      10.98226779      20.39303442       0.00000000       0.00000000       0.00000000       0.00025674      -0.00091269       0.00098071      -3.68526731 F F F
 Cu            29.52281871      29.19176605      10.20098215       0.00000000       0.00000000       0.00000000       0.00013531       0.00095125      -0.00028640      -4.10308623 F F F
 Cu            35.51963795      17.74512327      49.06562573       0.00000000       0.00000000       0.00000000       0.00021282      -0.00148227      -0.00051944      -3.07058507 F F F
 Cu            41.71318866      50.38390510      34.87689603       0.00000000       0.00000000       0.00000000      -0.00003052      -0.00044916      -0.00104308      -2.85334672 F F F
 Cu            27.22482159      22.36310547      48.91242708       0.00000000       0.00000000       0.00000000       0.00010799      -0.00106991      -0.00016248      -3.66700477 F F F
 Cu            41.99510157      40.09615149      47.21753973       0.00000000       0.00000000       0.00000000      -0.00094551       0.00020557       0.00014019      -2.77260982 F F F