    5000
 Properties=species:S:1:pos:R:3:velocities:R:3:forces:R:3:local_energy:R:1:fix_atoms:S:3 Lattice="59.8926018728       0.0000000000    0.0000000000    0.0000000000   59.9718743696    0.0000000000    0.0000000000    0.0000000000   60.0261967969" temperature=0.00000000 pressure=-41.43251681 time_step=1.0000 time=81.000000 energy=-30571.618504 energy_soap=-7216.99200166  energy_2b=-15363.85835226 energy_3b=0.00000000 energy_core_pot=0.00000000 energy_vdw=0.00000000 energy_exp=0.00000000 energy_xps=0.00000000 virial="-9.09908881           4.74395285      5.86969541      4.74395285      5.33937628      7.67207847      5.86969541      7.67207847    -12.96712392" stress="0.00004220           -0.00002200     -0.00002722     -0.00002200     -0.00002476     -0.00003558     -0.00002722     -0.00003558      0.00006014" volume=215606.391242 step=81
 Ni            44.46236244      40.59085493      22.33027047       0.00000000       0.00000000       0.00000000      -0.00121801      -0.00060144       0.00014069      -6.29979138 F F F
 Ni            27.62803635      18.30101050      32.11858175       0.00000000       0.00000000       0.00000000      -0.00068309      -0.00122056       0.00175575      -6.30465252 F F F
 Ni            37.03707106      30.18643518      24.79007749       0.00000000       0.00000000       0.00000000      -0.00014661       0.00003608       0.00054342      -6.34195791 F F F
 Ni            21.99394702      21.08465312      22.91367475       0.00000000       0.00000000       0.00000000       0.00078737      -0.00091907       0.00014070      -6.29684169 F F F
 Ni            21.38755683      38.67027237      35.74636910       0.00000000       0.00000000       0.00000000      -0.00024710       0.00082036      -0.00032200      -6.20292950 F F F
 Ni            22.55995372      25.54533769      24.21342395       0.00000000       0.00000000       0.00000000       0.00090922      -0.00067490      -0.00169344      -6.33594201 F F F
 Ni            16.43726030      37.01309786      47.11820569       0.00000000       0.00000000       0.00000000       0.00123145      -0.00087768       0.00011415      -5.26237870 F F F
 Ni            44.69644160      43.04336038      22.50413058       0.00000000       0.00000000       0.00000000      -0.00072743      -0.00034279      -0.00103154      -6.19435460 F F F
 Ni            47.60823209      41.42799403      30.51101948       0.00000000       0.00000000       0.00000000       0.00056925       0.00035459      -0.00034217      -6.33521330 F F F
 Ni            26.21945064      22.14929211      24.86211208       0.00000000       0.00000000       0.00000000       0.00073636      -0.00049611      -0.00055965      -6.31286904 F F F
 Ni            22.02853222      47.39379940      41.67860958       0.00000000       0.00000000       0.00000000       0.00148606       0.00042796      -0.00037830      -5.51275561 F F F
 Ni            31.65092066      27.37982872      26.06198720       0.00000000       0.00000000       0.00000000      -0.00002411      -0.00079513       0.00060865      -6.35767904 F F F
 Ni            31.12258800      45.19171457      46.28733457       0.00000000       0.00000000       0.00000000       0.00035745       0.00143850       0.00069507      -5.90098332 F F F
 Ni            22.24525272      31.89590316      19.07135260       0.00000000       0.00000000       0.00000000       0.00114486       0.00152623       0.00111118      -6.39891277 F F F
 Ni            36.29449861      35.82832306      29.38549415       0.00000000       0.00000000       0.00000000       0.00045350       0.00041070       0.00103404      -6.31641690 F F F
 Ni            32.08985443      30.89216358      10.07229928       0.00000000       0.00000000       0.00000000      -0.00105848       0.00047735       0.00080576      -6.20856559 F F F
 Ni            34.45367530      25.01760335       9.75321443       0.00000000       0.00000000       0.00000000      -0.00277138      -0.00085260      -0.00178446      -6.19921008 F F F
 Ni            37.42222752      22.24422337      26.45456781       0.00000000       0.00000000       0.00000000      -0.00084806      -0.00008228      -0.00023456      -6.10328394 F F F
 Ni            10.94709430      23.83646405      36.88983689       0.00000000       0.00000000       0.00000000      -0.00119173       0.00053118      -0.00381126      -5.92348900 F F F
 Ni            49.07719781      25.46296878      19.31231165       0.00000000       0.00000000       0.00000000      -0.00139703      -0.00016097       0.00087714      -5.96710417 F F F
 Ni            34.13007907      28.77072073      37.88637885       0.00000000       0.00000000       0.00000000      -0.00001123       0.00101027      -0.00096702      -6.25624113 F F F
 Ni            28.61497217      32.02421031      45.01382263       0.00000000       0.00000000       0.00000000      -0.00030649       0.00077077      -0.00117787      -6.24897554 F F F
 Ni            24.17289834      33.79316047      33.84489285       0.00000000       0.00000000       0.00000000       0.00101775       0.00034223       0.00034188      -6.37822403 F F F
 Ni            41.21628433      24.81020435      24.69671653       0.00000000       0.00000000       0.00000000      -0.00019578      -0.00016465       0.00058618      -6.20536243 F F F
 Ni            39.39192391      43.86993159      45.07388739       0.00000000       0.00000000       0.00000000       0.00067746      -0.00023922      -0.00020829      -5.58841235 F F F
 Ni            17.04923260      20.36377708      25.85994563       0.00000000       0.00000000       0.00000000       0.00065786       0.00021428      -0.00087149      -5.99282878 F F F
 Ni            40.92795066      27.13773609      20.65292560       0.00000000       0.00000000       0.00000000      -0.00108219      -0.00080234       0.00080156      -6.17425936 F F F
 Ni            41.77248505      21.25896568      41.33087741       0.00000000       0.00000000       0.00000000       0.00051036      -0.00035358       0.00037393      -6.34265656 F F F
 Ni            24.87707035      32.16165729       7.53755939       0.00000000       0.00000000       0.00000000      -0.00107820      -0.00024728       0.00091608      -5.46164378 F F F
 Ni            23.36079817      38.05951848      13.24451894       0.00000000       0.00000000       0.00000000      -0.00110748      -0.00030472       0.00089023      -6.25906513 F F F
 Ni            43.99455845      39.73842607      29.64207549       0.00000000       0.00000000       0.00000000       0.00010856       0.00038979       0.00143226      -6.18051199 F F F
 Ni            47.90151013      20.90970887      34.07537252       0.00000000       0.00000000       0.00000000      -0.00017434       0.00113573       0.00110904      -6.11423804 F F F
 Ni            23.54439221      15.72760632      13.11242987       0.00000000       0.00000000       0.00000000      -0.00074037       0.00003676      -0.00039562      -5.50351574 F F F
 Ni            40.58470654      40.11464141      47.68829160       0.00000000       0.00000000       0.00000000       0.00021587      -0.00014780      -0.00020595      -5.52030679 F F F
 Ni            19.28251780      12.74307314      36.63790501       0.00000000       0.00000000       0.00000000      -0.00101313       0.00000848       0.00146669      -6.21545851 F F F
 Ni            27.92662750      41.35087396      27.92016538       0.00000000       0.00000000       0.00000000      -0.00000343       0.00009752      -0.00032251      -6.32785731 F F F
 Ni            18.97537944      41.67036168      13.90331985       0.00000000       0.00000000       0.00000000      -0.00082579      -0.00075486       0.00201562      -5.80326546 F F F
 Ni            14.04623372      41.85098009      26.96650972       0.00000000       0.00000000       0.00000000       0.00014440      -0.00002605       0.00212989      -6.32149659 F F F
 Ni            15.05381143      38.60780381      21.09951788       0.00000000       0.00000000       0.00000000      -0.00040925      -0.00043390       0.00224374      -6.33113209 F F F
 Ni            43.97761495      40.79644353      25.55508327       0.00000000       0.00000000       0.00000000      -0.00138322      -0.00044083       0.00035811      -6.15825220 F F F
 Ni            16.29761219      42.36790769      28.00739062       0.00000000       0.00000000       0.00000000       0.00049010      -0.00021726       0.00180351      -6.17242704 F F F
 Ni            47.75801971      42.42237437      24.78036330       0.00000000       0.00000000       0.00000000      -0.00103640      -0.00066762      -0.00093544      -5.70774136 F F F
 Ni            20.55994939      38.77722882      16.27434286       0.00000000       0.00000000       0.00000000      -0.00021126      -0.00061759       0.00195471      -6.15777907 F F F
 Ni            17.50514660      18.97207072      31.55819635       0.00000000       0.00000000       0.00000000      -0.00029923      -0.00042155      -0.00035710      -6.00911623 F F F
 Ni            14.92786738      25.83490985      24.89746387       0.00000000       0.00000000       0.00000000       0.00109011      -0.00008471      -0.00004637      -6.31335290 F F F
 Ni            46.93041333      32.02214254      44.41371723       0.00000000       0.00000000       0.00000000       0.00023280       0.00019565       0.00045494      -5.77051675 F F F
 Ni            23.31334693      36.77508878      19.70645292       0.00000000       0.00000000       0.00000000       0.00025931      -0.00209924      -0.00060172      -6.26711283 F F F
 Ni            31.00247168      35.12642725      38.45650822       0.00000000       0.00000000       0.00000000      -0.00103405       0.00096332      -0.00141060      -6.08417818 F F F
 Ni            27.14381763      33.04628333      30.37097018       0.00000000       0.00000000       0.00000000      -0.00084753       0.00002185       0.00026988      -6.32365563 F F F
 Ni            25.95551572      30.23556717      38.33018968       0.00000000       0.00000000       0.00000000      -0.00195321      -0.00038782      -0.00133391      -6.26018556 F F F
 Ni            35.93643880      36.51450232      25.29740076       0.00000000       0.00000000       0.00000000       0.00005074       0.00020804       0.00092904      -6.43593613 F F F
 Ni            30.85564116      33.27508388      27.74333753       0.00000000       0.00000000       0.00000000       0.00082541       0.00000940       0.00029410      -6.24385445 F F F
 Ni            29.47166551      18.50556707      37.47800300       0.00000000       0.00000000       0.00000000       0.00018705      -0.00092534       0.00104317      -6.35126603 F F F
 Ni            24.35073840      18.21254249      28.77207123       0.00000000       0.00000000       0.00000000       0.00185055      -0.00227767       0.00084429      -6.24660578 F F F
 Ni            19.84256877      26.00347139      33.64889075       0.00000000       0.00000000       0.00000000       0.00011500       0.00018191      -0.00112435      -6.09057342 F F F
 Ni            25.23390340      13.88531364      35.75564636       0.00000000       0.00000000       0.00000000      -0.00036564      -0.00143182       0.00042843      -6.36925998 F F F
 Ni            49.39016655      33.12364124      37.97641882       0.00000000       0.00000000       0.00000000       0.00131695       0.00028864       0.00097636      -6.25736517 F F F
 Ni            28.88313682      36.36908707      16.11319229       0.00000000       0.00000000       0.00000000       0.00130717       0.00070796       0.00164858      -6.31120362 F F F
 Ni            31.49108140      17.76046953      11.25838113       0.00000000       0.00000000       0.00000000      -0.00069851      -0.00011318      -0.00069437      -5.78864272 F F F
 Ni            37.64682624      10.58772467      37.22302820       0.00000000       0.00000000       0.00000000      -0.00003041      -0.00043901       0.00009497      -5.53915293 F F F
 Ni            17.85394330      23.61679193      28.06787392       0.00000000       0.00000000       0.00000000       0.00052149       0.00014431       0.00032629      -6.37399331 F F F
 Ni            29.35199036      39.92261975      29.46452519       0.00000000       0.00000000       0.00000000       0.00029538       0.00035168       0.00004449      -6.04356648 F F F
 Ni            27.55451817      39.84632470      43.74041263       0.00000000       0.00000000       0.00000000      -0.00077432       0.00070808      -0.00110828      -6.14717091 F F F
 Ni            47.69357895      33.66260794      18.89779831       0.00000000       0.00000000       0.00000000      -0.00125174      -0.00054586       0.00067984      -6.25930731 F F F
 Ni            37.83159569      46.01971739      39.77322498       0.00000000       0.00000000       0.00000000       0.00204750       0.00062319      -0.00075138      -6.28438134 F F F
 Ni            15.00699668      31.44730341      24.73285343       0.00000000       0.00000000       0.00000000       0.00049857       0.00002216       0.00069534      -6.41606291 F F F
 Ni            36.43316267      13.52793511      33.73851417       0.00000000       0.00000000       0.00000000      -0.00016595       0.00095539       0.00062541      -6.26370988 F F F
 Ni            26.13785295      33.14730132      35.18369901       0.00000000       0.00000000       0.00000000       0.00488304      -0.00305146      -0.00172831      -6.24118936 F F F
 Ni            36.79641009      39.85787353      34.32950943       0.00000000       0.00000000       0.00000000       0.00052560       0.00116690       0.00053340      -6.37456728 F F F
 Ni            17.17751068      41.92892942      19.62959192       0.00000000       0.00000000       0.00000000      -0.00005386      -0.00034463       0.00187252      -6.24715767 F F F
 Ni            19.73195210      21.82759952      19.62130831       0.00000000       0.00000000       0.00000000       0.00153994      -0.00029952       0.00014114      -5.99005549 F F F
 Ni            39.74430947      22.44626351      44.80679735       0.00000000       0.00000000       0.00000000      -0.00055729       0.00022627       0.00008676      -6.31767058 F F F
 Ni            26.10914981      30.79452305      25.22306776       0.00000000       0.00000000       0.00000000       0.00054558      -0.00006383       0.00032556      -6.35977704 F F F
 Ni            19.10845419      37.76090602      28.31086733       0.00000000       0.00000000       0.00000000       0.00011020      -0.00090262       0.00094786      -6.36235797 F F F
 Ni            33.08837209      30.51302445      30.16542117       0.00000000       0.00000000       0.00000000      -0.00001674      -0.00026909       0.00043864      -6.25026156 F F F
 Ni            20.85238549      12.43399294      18.48667610       0.00000000       0.00000000       0.00000000      -0.00032622      -0.00020893      -0.00073364      -5.36585774 F F F
 Ni            33.89202274      10.47849345      30.09032947       0.00000000       0.00000000       0.00000000       0.00087971       0.00014187      -0.00057443      -6.15814732 F F F
 Ni            25.55432091      25.92005466      42.10804660       0.00000000       0.00000000       0.00000000       0.00033183      -0.00064205      -0.00105702      -6.11330531 F F F
 Ni            34.86920904      43.73790588      41.61272266       0.00000000       0.00000000       0.00000000      -0.00123734       0.00133534      -0.00050112      -6.26826614 F F F
 Ni            21.43470801      27.72692109      49.99232805       0.00000000       0.00000000       0.00000000       0.00073097       0.00047643      -0.00044284      -5.73755124 F F F
 Ni            28.69804285      21.39890328      19.21111349       0.00000000       0.00000000       0.00000000       0.00129255      -0.00119311      -0.00151536      -6.24425268 F F F
 Ni            28.55414957      36.54125529       8.66141414       0.00000000       0.00000000       0.00000000      -0.00069932      -0.00026063      -0.00234636      -5.90438118 F F F
 Ni            11.69665471      38.86636975      18.48456234       0.00000000       0.00000000       0.00000000      -0.00041196      -0.00023201       0.00272341      -5.49397853 F F F
 Ni            19.24684284      40.72254339      16.19908254       0.00000000       0.00000000       0.00000000       0.00009993      -0.00037792       0.00216775      -6.28380923 F F F
 Ni            33.33950073      33.96200721      20.33339236       0.00000000       0.00000000       0.00000000       0.00063630       0.00048783      -0.00093263      -6.31189429 F F F
 Ni            25.99370176       7.94089171      33.47719459       0.00000000       0.00000000       0.00000000       0.00102027      -0.00042046      -0.00081372      -5.50676130 F F F
 Ni            29.80778652      15.89063133      14.60818641       0.00000000       0.00000000       0.00000000       0.00132263       0.00144081       0.00037604      -6.18499508 F F F
 Ni            19.51859633      32.54269481      20.02674137       0.00000000       0.00000000       0.00000000       0.00001880       0.00049054       0.00136051      -6.25526619 F F F
 Ni            15.41439489      16.80657183      34.95374374       0.00000000       0.00000000       0.00000000      -0.00084642      -0.00149328      -0.00128074      -6.35950153 F F F
 Ni            27.24606327      13.90911894      13.88845384       0.00000000       0.00000000       0.00000000      -0.00135912      -0.00137036      -0.00021479      -5.59688882 F F F
 Ni            38.96273722      29.80204495      51.47292295       0.00000000       0.00000000       0.00000000      -0.00070841      -0.00033613      -0.00094690      -5.47705150 F F F
 Ni            30.74017115      19.04643591      22.84479613       0.00000000       0.00000000       0.00000000       0.00089379      -0.00042498      -0.00096141      -6.38719968 F F F
 Ni            13.49093464      26.48658771      43.91737389       0.00000000       0.00000000       0.00000000      -0.00075094       0.00269330      -0.00580146      -5.93994407 F F F
 Ni            32.96455902      16.07870845      24.27314277       0.00000000       0.00000000       0.00000000       0.00104367       0.00016466      -0.00080517      -6.43238534 F F F
 Ni            41.29906580      28.43884993      17.27587557       0.00000000       0.00000000       0.00000000      -0.00109198      -0.00092609       0.00054199      -6.38679058 F F F
 Ni            23.71681876      40.68532250      39.13947777       0.00000000       0.00000000       0.00000000      -0.00011084       0.00020615      -0.00040902      -6.23556746 F F F
 Ni            31.58266468      40.38993832      45.37938880       0.00000000       0.00000000       0.00000000      -0.00007979       0.00051320      -0.00147074      -6.28042307 F F F
 Ni            21.88878454      13.37831849      16.70812482       0.00000000       0.00000000       0.00000000       0.00119639       0.00190116       0.00159512      -5.56454375 F F F
 Ni            28.26160861      23.81690006      21.40194547       0.00000000       0.00000000       0.00000000       0.00134953      -0.00119309      -0.00058892      -6.36482884 F F F
 Ni            43.82834349      41.74059816      30.76337686       0.00000000       0.00000000       0.00000000       0.00033755       0.00057055       0.00073847      -6.06302775 F F F
 Ni            20.11922934      17.38739827      21.55592260       0.00000000       0.00000000       0.00000000       0.00072235       0.00049730       0.00014408      -6.26442126 F F F
 Ni            30.13840410      25.87825814      15.41171609       0.00000000       0.00000000       0.00000000      -0.00039797      -0.00037620      -0.00013683      -6.31706218 F F F
 Ni            26.09901147      22.79243042      15.55476563       0.00000000       0.00000000       0.00000000      -0.00078683      -0.00129206       0.00096978      -6.27107685 F F F
 Ni            42.85611879      38.90799634      14.27880934       0.00000000       0.00000000       0.00000000      -0.00100690      -0.00085810       0.00026490      -5.75370079 F F F
 Ni            17.92203056      18.19669972      35.49917819       0.00000000       0.00000000       0.00000000      -0.00018555      -0.00078061      -0.00108888      -6.33070299 F F F
 Ni            26.90188700      12.20846893      39.02251241       0.00000000       0.00000000       0.00000000      -0.00108988      -0.00181876       0.00038111      -6.17968991 F F F
 Ni            30.45769219      33.80222012      43.90313330       0.00000000       0.00000000       0.00000000      -0.00080272       0.00096863      -0.00202140      -6.27700196 F F F
 Ni            21.86604820      32.42662984      37.86640745       0.00000000       0.00000000       0.00000000      -0.00020859      -0.00049973      -0.00073415      -6.33765392 F F F
 Ni            18.88496471      36.53048893      47.21691283       0.00000000       0.00000000       0.00000000       0.00135476      -0.00048335      -0.00032227      -6.11337737 F F F
 Ni            17.22694768      40.11109798      13.43963187       0.00000000       0.00000000       0.00000000      -0.00110593      -0.00017740       0.00193851      -5.51345205 F F F
 Ni            39.86931270      45.71260139      41.34521754       0.00000000       0.00000000       0.00000000       0.00198916       0.00065621       0.00035930      -5.99676305 F F F
 Ni            13.50618821      26.62861031      23.08519812       0.00000000       0.00000000       0.00000000       0.00118707      -0.00058406      -0.00033070      -6.31123108 F F F
 Ni            35.85509582      26.83420402      17.77411535       0.00000000       0.00000000       0.00000000       0.00009882       0.00027688      -0.00185330      -6.43086642 F F F
 Ni            31.12943667      33.01963275      47.88658951       0.00000000       0.00000000       0.00000000      -0.00076618       0.00041150      -0.00217732      -6.30519786 F F F
 Ni            32.09426018      41.00861577      39.44308712       0.00000000       0.00000000       0.00000000      -0.00063805       0.00083597      -0.00015814      -6.40559532 F F F
 Ni            32.53521890      32.91551888      42.15827612       0.00000000       0.00000000       0.00000000      -0.00079174       0.00096752      -0.00167628      -6.29395903 F F F
 Ni            45.12689142      24.38016579      26.75296146       0.00000000       0.00000000       0.00000000      -0.00100531       0.00060048       0.00157906      -6.30418161 F F F
 Ni            45.72998060      22.24466270      25.21027926       0.00000000       0.00000000       0.00000000      -0.00072735       0.00007621       0.00139498      -6.42365754 F F F
 Ni            21.97827310      23.40565862      23.36856134       0.00000000       0.00000000       0.00000000       0.00361375      -0.00163523       0.00069100      -6.34146948 F F F
 Ni            44.63261654      43.10108005      18.53781395       0.00000000       0.00000000       0.00000000      -0.00263843      -0.00037534      -0.00031603      -5.51499036 F F F
 Ni            37.69477173      42.07899327      12.74504848       0.00000000       0.00000000       0.00000000      -0.00114835      -0.00129537      -0.00060285      -5.47086127 F F F
 Ni            43.94961846      24.96412003      31.85770110       0.00000000       0.00000000       0.00000000      -0.00084258       0.00067248       0.00054347      -6.19924419 F F F
 Ni            27.32950854       9.22181358      23.87806247       0.00000000       0.00000000       0.00000000       0.00068947       0.00050386      -0.00160395      -5.61826118 F F F
 Ni            29.59024473      27.91003230      30.52988165       0.00000000       0.00000000       0.00000000      -0.00034222      -0.00018414       0.00008008      -6.26018271 F F F
 Ni            12.14931368      30.42772379      29.74128856       0.00000000       0.00000000       0.00000000       0.00103764      -0.00008029       0.00068435      -6.40103990 F F F
 Ni            34.68530955      16.60916100      45.25788380       0.00000000       0.00000000       0.00000000      -0.00031668      -0.00093608      -0.00031957      -6.36871888 F F F
 Ni            43.19427309      21.02402991      32.84111007       0.00000000       0.00000000       0.00000000      -0.00025317       0.00080957       0.00047892      -6.33635637 F F F
 Ni            30.87427729      47.39563864      21.09761530       0.00000000       0.00000000       0.00000000      -0.00136700      -0.00121597       0.00156253      -6.29510370 F F F
 Ni            14.22678904      40.83177214      30.67655104       0.00000000       0.00000000       0.00000000       0.00064555      -0.00015686       0.00213909      -6.13562679 F F F
 Ni            30.92456650      12.60381562      34.42297840       0.00000000       0.00000000       0.00000000      -0.00051784      -0.00070816       0.00045685      -6.20730911 F F F
 Ni            49.27315791      23.40016416      39.33142480       0.00000000       0.00000000       0.00000000      -0.00007362      -0.00220124       0.00306996      -5.53254179 F F F
 Ni            23.08180835      46.42212035      38.67605411       0.00000000       0.00000000       0.00000000       0.00139389       0.00106779      -0.00080586      -6.36542070 F F F
 Ni            28.30665499      44.52618399      18.79329879       0.00000000       0.00000000       0.00000000      -0.00129230       0.00307974       0.00042467      -6.27210721 F F F
 Ni            18.12067274      38.29719895      41.04232135       0.00000000       0.00000000       0.00000000      -0.00016539       0.00037658       0.00072071      -6.40516157 F F F
 Ni            21.96274505      17.38765907      27.50465130       0.00000000       0.00000000       0.00000000       0.00140107      -0.00226988      -0.00078864      -6.36591334 F F F
 Ni            24.44900179      27.13677409      27.40942261       0.00000000       0.00000000       0.00000000       0.00090330      -0.00076003      -0.00100868      -5.96258237 F F F
 Ni            27.39598128      48.93955074      22.92614717       0.00000000       0.00000000       0.00000000      -0.00167278       0.00164629      -0.00105585      -5.99181923 F F F
 Ni            21.03016000      46.09486499      37.36755045       0.00000000       0.00000000       0.00000000       0.00105396       0.00071367      -0.00024071      -6.41631647 F F F
 Ni            21.68408940       9.38321718      34.57046506       0.00000000       0.00000000       0.00000000       0.00033998      -0.00087419       0.00019177      -5.49805364 F F F
 Ni            30.24828259      30.11131978      39.26142817       0.00000000       0.00000000       0.00000000      -0.00036646       0.00058559      -0.00155571      -6.35533462 F F F
 Ni            28.65536432      31.48807368      15.72087106       0.00000000       0.00000000       0.00000000      -0.00041890       0.00039556       0.00030507      -6.38230837 F F F
 Ni            35.89796599      34.44479869      31.46276869       0.00000000       0.00000000       0.00000000       0.00018332       0.00091608       0.00108221      -6.45912172 F F F
 Ni            35.26133590      32.61681412      45.74839077       0.00000000       0.00000000       0.00000000      -0.00030873       0.00091758      -0.00207145      -6.27024898 F F F
 Ni            15.49264976      13.95229385      38.17283981       0.00000000       0.00000000       0.00000000      -0.00131732      -0.00060296      -0.00095375      -5.65916836 F F F
 Ni            46.96339520      25.95331981      26.53819955       0.00000000       0.00000000       0.00000000      -0.00090901       0.00025192       0.00097202      -6.36255117 F F F
 Ni            48.63109724      38.99381762      19.32744637       0.00000000       0.00000000       0.00000000       0.00343965      -0.00274713       0.00179869      -5.27034752 F F F
 Ni            30.86904093      32.29881312      45.68052006       0.00000000       0.00000000       0.00000000      -0.00023360       0.00097803      -0.00214441      -6.20195020 F F F
 Ni            23.97275026      37.83204316      25.77469765       0.00000000       0.00000000       0.00000000       0.00040510      -0.00022014       0.00063979      -6.17148241 F F F
 Ni            46.12329930      40.43376602      28.75352784       0.00000000       0.00000000       0.00000000      -0.00013242       0.00003624       0.00026195      -6.20923269 F F F
 Ni            31.37575093      35.27958935      26.28996452       0.00000000       0.00000000       0.00000000       0.00085477       0.00089846       0.00107415      -6.20072731 F F F
 Ni            40.83705742      28.17915010      22.75897416       0.00000000       0.00000000       0.00000000       0.00016735      -0.00068097       0.00111788      -6.25318976 F F F
 Ni            24.34692287      37.85236990       9.27997873       0.00000000       0.00000000       0.00000000      -0.00161327       0.00017994      -0.00052407      -6.07533891 F F F
 Ni            47.34927210      23.47255707      26.66145294       0.00000000       0.00000000       0.00000000      -0.00108828       0.00053528       0.00126894      -6.14556741 F F F
 Ni            47.14765739      30.81002565      21.97526755       0.00000000       0.00000000       0.00000000      -0.00131746      -0.00036778       0.00070064      -6.20224677 F F F
 Ni            28.37150481      32.73391703      51.83040785       0.00000000       0.00000000       0.00000000       0.00040266       0.00014864       0.00061413      -5.98790668 F F F
 Ni            31.74491126      49.26762572      35.03630335       0.00000000       0.00000000       0.00000000       0.00128451       0.00102077      -0.00121138      -6.21955302 F F F