      50
 Properties=species:S:1:pos:R:3:forces:R:3:local_energy:R:1 Lattice="21.6037946350       0.0000000000    0.0000000000    0.0000000000   21.6243499093    0.0000000000    0.0000000000    0.0000000000   21.6649027649" energy=-187.227765 virial="-25.21634636          4.78181591     -7.61065681      4.78181591    -14.42858550      1.92773442     -7.61065681      1.92773442    -14.10257328" stress="0.00249145           -0.00047246      0.00075196     -0.00047246      0.00142559     -0.00019047      0.00075196     -0.00019047      0.00139338" volume=10121.149610
 Ni            12.29118354       9.65945936      11.43433051       0.68616812       0.46906881       0.41390928      -4.98549901
 Ni            12.60557662      14.68053173      12.72773236      -1.01928091      -0.79655716      -0.67498344      -3.53232232
 Ni             7.73926483      10.60261459      10.59353835       2.67200734      -1.32938213      -2.24942567      -4.03029866
 Ni             7.66466440      11.73242311       8.27450655       0.34690658      -0.62744199       0.56527374      -3.71695104
 Ni             7.55041310      11.47916361      13.30041474       0.05974108      -1.06572692      -0.08214025      -3.74876939
 Ni            14.41800502      11.89562697       8.18623026       1.21637430       0.42254206       1.78031813      -3.69390553
 Ni            14.90053039      12.71129659      10.80796641      -1.31846920      -0.52445337      -0.58425468      -3.61278370
 Ni            10.73588936       8.37477411      12.75488829       2.71005322      -0.45428901       3.18135023      -3.67657834
 Ni            13.64687330      10.07009936      13.82844292      -0.21121456      -0.92635692      -0.52033384      -4.16534279
 Ni            13.04932099       6.13865840      11.67293451      -0.21254543       0.36259848      -1.16360150      -3.40809173
 Ni            13.70827114       7.24815146       9.41501534       0.68002326      -0.51204123       1.21891054      -3.85112224
 Ni            10.71178009      13.08073437      13.63540746      -1.69781976       0.05931782       2.76898886      -4.08962920
 Ni            14.07667324      10.02112763       9.99380773      -1.05857284       1.85562422       2.40817866      -3.94916210
 Ni            10.16854490      13.42221724      10.79867769       1.75488025       1.46368209      -0.85917567      -4.07655133
 Ni             7.28408023      13.45191558      10.02569447       1.04532378      -1.44490845       0.31285620      -3.57338458
 Ni            11.13058220       9.75822581       6.00000000      -0.22778126       0.43625432       1.61938184      -3.58053036
 Ni            10.01707449       6.64301157      11.84766138      -0.34510736      -1.79572791      -1.24437049      -4.10130368
 Ni             9.81659261      12.21631359       7.75106889       0.98872110      -0.47438207      -0.15404285      -4.20069454
 Ni            12.30904825      14.97746998       8.75880518       0.20751709       1.82649618      -0.15033353      -3.29684419
 Ni             9.86716568       7.77834956       7.62278049       1.01254714      -0.29410626      -1.52995377      -3.98075412
 Ni             9.41476591       8.80660508       9.39698665       1.46983669       3.25286083      -0.74476333      -3.91428587
 Ni            12.57365385       8.76376439      15.31534618      -0.38091008      -0.01267560      -1.01616924      -3.25885693
 Ni            14.70072975       8.06343239      12.51650743       1.36266809       1.06117286      -1.54435198      -3.39570815
 Ni             8.31775317       8.29565805      13.02721597       3.21170234      -0.06298774       2.01565223      -3.90748040
 Ni            13.59768633      12.19043866      13.35704596      -0.00822397       1.10918108      -0.14956941      -3.99831814
 Ni            12.08391813      11.19548954       9.46357301      -2.53180923      -1.38250391       3.09783110      -4.31056707
 Ni            15.58593584      11.44041542      12.52522181      -0.74245950      -0.62740703       0.03367127      -3.39495738
 Ni             7.34065699       8.70904428       8.54140117       0.79361934       0.84119802       0.16276747      -3.74743278
 Ni            12.80248458      10.69015345       7.64397461      -0.49235657       0.98559416      -5.93616676      -3.40020939
 Ni             9.92042102      10.41981695      13.16118540      -0.97096033       3.12155032       4.02810382      -4.48068167
 Ni            12.87036261       7.54069695      13.26010697      -2.85866355       0.68196634       2.22131257      -3.70555995
 Ni            12.49269672      13.18152780       9.84889274       0.95217601       0.75904208       1.61491680      -4.17985482
 Ni             9.84040380      11.58216790      15.66490276       1.37948806       0.25054978      -1.87833628      -2.97023630
 Ni            10.48082611       6.00000000       9.37717410      -0.32941917       1.43653842       0.24971471      -3.56738576
 Ni            12.72736531       8.94808491       8.62611750      -1.24385674      -0.70914875       1.58004812      -3.78900047
 Ni             8.53547794       7.13788253      10.09200632      -1.56404843      -2.31088585       1.51632219      -3.81559322
 Ni             8.73632616       9.76684634       6.32739475       0.67455578      -0.20798610       2.00164729      -3.31882393
 Ni            12.43114280      12.00484869      15.50037683      -1.12280907      -0.82656279      -1.67418716      -3.30715922
 Ni             9.93677561       6.88953473      14.24038765      -0.03934727       0.32497356      -0.56891475      -3.41673144
 Ni            12.07127982      12.28682021       6.22612192      -0.45104122      -1.11480687       0.89379469      -3.31025864
 Ni             8.25481927      14.51537176      11.83501898       1.06629010      -0.10602574      -0.34582543      -3.59295225
 Ni            10.00638789       9.64405128      11.30195186      -1.20949609       1.06824518      -4.52096483      -4.10708424
 Ni            10.79391955      15.62434991      11.24190053       0.46828228      -1.54989084      -0.27665390      -3.54395700
 Ni             6.00000000      11.13201906      11.45192145      -1.87857970       1.11360085       1.65414966      -3.30551903
 Ni            11.87111683      12.55845296      12.04338401       1.32806364      -1.47220536      -2.80151503      -4.08208800
 Ni            10.24783370      14.26309372       8.81498640      -1.00394296      -0.38136465      -0.25422661      -3.76806934
 Ni            15.60379464       9.41309276       8.80541168       0.62255320      -0.55179125      -1.60833538      -3.17280303
 Ni             6.99729228       8.55115043      11.50975624      -1.45878091       0.91275133      -3.43945313      -3.70974234
 Ni            12.69327482       7.28176204       7.32646253      -1.11989955      -1.05485345      -0.70771559      -3.35897953
 Ni             8.80774004      12.25375819      11.73230573      -1.21210312      -1.19833943       1.34066512      -4.12694950
