      50
 Properties=species:S:1:pos:R:3:forces:R:3:local_energy:R:1 Lattice="21.0405591637       0.0000000000    0.0000000000    0.0000000000   21.2657208378    0.0000000000    0.0000000000    0.0000000000   20.5650794220" energy=-169.890289 virial="-0.24500045          -0.66522088     -3.39502594     -0.66522088     15.00782205     -4.53607570     -3.39502594     -4.53607570    -12.87123638" stress="0.00002663            0.00007229      0.00036896      0.00007229     -0.00163098      0.00049296      0.00036896      0.00049296      0.00139879" volume=9201.693787
 Cu            12.16056784      10.69661978      11.84473838       0.39811721       0.20987537      -0.77800880      -3.48759054
 Cu             7.30637693      12.33793452       9.86815451      -2.77236243      -3.89611140       1.67822175      -2.45642420
 Cu            10.29702115      10.16564598       7.66884650       1.38480043       4.57786883       2.82507484      -2.88260457
 Cu            15.04055916      12.16766786       8.96875681      -0.91200768      -0.66115494      -0.16975182      -2.32301464
 Cu             9.03237349      12.15190117       8.68950503       2.38413208      -0.33141684      -2.89098519      -3.09857739
 Cu            12.33846942      13.42420957      10.94321778      -1.16948091      -3.15933451       1.34523196      -3.01360486
 Cu             9.18833693      11.41807048      12.95668679      -0.33077952       0.87226500      -2.13862176      -3.22300545
 Cu             8.61078783       8.03468916      12.19564210       0.03385181      -1.32103756      -1.45828529      -2.58982882
 Cu            13.92917091       7.45470178       8.38086093       0.73396351       0.32907194       0.78767962      -2.62963499
 Cu             8.51947967       6.82445919       9.29297343      -1.95378789      -1.26322550       0.41547276      -2.67165156
 Cu            10.36694573       7.36424971      10.73622759       1.70182181      -1.66047698       3.54499374      -2.40467742
 Cu            11.78757377       9.14513286       6.23317423       1.10315312       1.12803643      -0.97211233      -2.60359592
 Cu            14.29820831       9.54346143      12.05429965      -1.37457053      -1.62866911      -0.61219920      -2.47059384
 Cu            10.07683295      13.37959171       6.00000000      -1.37965357       1.45728346       0.55353897      -2.30385186
 Cu            11.77141817      12.89116828       7.57264350      -0.82841732      -2.65448663       1.61949973      -2.97634811
 Ni             9.69513566      13.09018244      10.93009654       0.13848660       0.09894218       0.38106076      -4.76676100
 Ni            11.91512818       8.06608650      12.94410621      -0.34920328       1.38046064      -0.24677604      -3.58169194
 Ni            11.82483642      14.33547087      13.11123783      -0.17548367      -1.10709675      -0.35374689      -3.45088522
 Ni             8.22578121      10.91762498       6.26832580       2.36070910       0.33526709      -0.78842495      -3.98594719
 Ni            10.09274320       6.00000000       7.79621030       0.99701547       1.17046637       0.08883099      -3.58692714
 Ni            10.42172651      10.87593945       9.97121980      -2.14818138      -0.37179920       2.28249994      -4.54031727
 Ni             7.98721347      13.25909707      12.59496748      -0.39878476       0.59935604      -0.82170647      -3.54798134
 Ni             9.83354168      13.56919355      14.12544908      -0.06805006      -0.04556253      -0.61002859      -3.54497175
 Ni            12.56979061      10.07806761      14.18138804       0.30582316      -0.35645259      -0.74361006      -3.88252742
 Ni            14.26379554      11.97770715       6.56840356      -0.94893706       0.15194308       0.39402528      -3.19909070
 Ni             8.39509920       9.61161268      13.55853289      -3.98028428      -0.74095750       0.39181719      -2.52747572
 Ni             8.05071232       9.41028333       7.86609505      -2.01883330       0.34236079       2.55061887      -4.66256269
 Ni            11.91725180       9.03384290       9.73425907       2.07190889      -0.49175353       0.54952000      -4.82936104
 Ni             7.58436458      14.29831456      10.47050282       1.55346929       2.95471298       0.27104217      -3.25639009
 Ni            12.06787451       7.32880714       7.34653282      -2.09854545      -1.00087975       0.53035824      -3.44304726
 Ni            14.29696568      14.06926980      10.21248506       0.53437496      -0.19427793      -0.70562093      -3.13968951
 Ni             9.97616686      14.73609411       8.69646437       0.09214526      -1.43441805       0.59681878      -4.15091371
 Ni            14.42758231       9.35177575       9.60952779      -1.35073041       1.19315897      -0.21129274      -3.52397886
 Ni            11.11848775      11.74631911      13.76612468       2.21502975       1.19943550       0.64806523      -4.01362742
 Ni            12.32979870      11.14550460       9.19872437       3.90457397       0.75689509      -0.95267988      -4.47823156
 Ni             7.05662364      10.12673221      11.13377608       0.71184510       0.17519141      -0.00371058      -4.10075987
 Ni            11.05929212      11.48837601       6.10862039       0.53119165      -1.95419137      -0.99001280      -3.29531747
 Ni            14.98868649      11.43607997      12.73075871       1.27715092       0.27754487      -0.94876411      -2.93028008
 Ni            12.44812509      15.26572084       9.90954312      -0.51679474       1.77278668      -1.64183878      -3.22629744
 Ni            11.99462533       6.24587535       9.38865968      -0.59433498       0.71581512      -0.33512054      -3.69486315
 Ni             6.00000000       9.23002380       8.80400032      -0.87739223       1.93437522      -1.28173465      -3.41212558
 Ni             7.53952246      13.77112423       8.15061727      -0.05567558       0.83786127      -0.53089762      -3.50862972
 Ni             9.56429699       8.58489343       6.66183190      -0.27532920      -4.55987796      -3.19531062      -3.59744074
 Ni            14.35238555       9.81591124       7.17109176      -0.66971539       0.03474110       1.33148730      -3.66006490
 Ni            13.56144212      12.50725688      13.75134336      -2.60514323       0.69823906       0.53976027      -3.70929200
 Ni            10.01423644       8.29249173       8.95694384       0.71053097       1.36057266      -3.99412638      -4.09995017
 Ni            12.46092386      14.77026052       7.56446701       0.85132059       2.53150088       0.89133401      -2.87209159
 Ni             6.56008025      11.37238115       7.54152348      -0.20672839       0.73888471       1.33399128      -3.71821674
 Ni            10.18621834       9.65851831      14.56507942       2.99059696       0.17847158       0.26005094      -3.73987359
 Ni             6.82715691       8.05819619      10.27409603       1.07319464      -1.18020370       1.56437242      -3.07770318
