      50
 Properties=species:S:1:pos:R:3:forces:R:3:local_energy:R:1 Lattice="21.1426623012       0.0000000000    0.0000000000    0.0000000000   21.5929375863    0.0000000000    0.0000000000    0.0000000000   20.9437854409" energy=-167.239675 virial="-9.07524124           5.19021420      9.60041663      5.19021420     -2.91556409      7.34689621      9.60041663      7.34689621     -3.26433218" stress="0.00094914           -0.00054282     -0.00100407     -0.00054282      0.00030493     -0.00076838     -0.00100407     -0.00076838      0.00034140" volume=9561.512181
 Cu             7.28389498      10.58853320      11.60847660       0.26166943      -3.99700447      -1.85230058      -2.45906523
 Cu            10.45322002      12.16866918      14.14052503       0.31282008       0.19537776      -1.01955910      -3.04780520
 Cu            11.64065448      15.18256478       9.03112754       2.53467836       0.27772275      -1.37053244      -2.35486502
 Cu             8.92714112      12.36094826       9.26183640       0.45256051       1.34210561       0.33076172      -3.37679194
 Cu            11.27096815       9.76998064       6.00000000      -0.09875714       1.00515721       0.53919661      -2.60165439
 Cu            11.33979653       8.82873303      13.83563699      -0.46290720       1.12591822      -0.10416191      -3.34994597
 Cu            10.03580372       8.50962550      11.32013900       0.59216395      -0.57947584      -0.46934001      -3.27555726
 Cu            11.30705209      10.75339574      10.97171608       0.08152441       0.15069449       0.45337464      -3.19511024
 Cu             9.60114897       6.00000000      11.03924415      -2.82340364      -0.71336126      -0.30697280      -2.31473058
 Cu            13.04946783       8.47898250      11.25173360      -0.99768500       0.99541356      -2.44719365      -2.98793846
 Cu            14.23514012      13.20025478       9.16187135      -0.72365040       1.67604264      -0.96161724      -2.60572681
 Cu            12.45763115      11.51209144       9.19488039       2.00266468      -0.40252861      -1.80523780      -2.06949504
 Cu             8.81998253       8.48451010       7.30954075      -0.37961683       0.80598174       0.01566305      -2.84658656
 Cu            10.84583961       7.70572278       6.97029397       0.38853686      -0.70133721      -0.25330259      -2.35852263
 Cu             8.80062459      11.92072773       6.45056297      -0.16948935      -0.46055502       0.46157796      -2.66953453
 Ni             7.45509173      14.06907458       9.87268725       0.50480186      -0.46290939       0.85760446      -3.42804501
 Ni             9.07674991      10.18410689       9.06771790      -0.59224627      -2.00766715       0.20349612      -4.35481621
 Ni            12.49606624      13.13125266      12.81201612      -0.61910497      -0.08038182      -0.79767213      -4.48742726
 Ni            13.89329882      11.22383128      13.19413153       0.03816075       0.34319564      -1.09302597      -3.94315581
 Ni             6.00000000       8.99656010       9.29581506       2.07967075       0.55950114      -0.15090840      -3.23846555
 Ni             9.30319960      10.04045879      14.94378544       0.85407121       1.13268029       0.22308012      -3.45009556
 Ni            14.22899381      11.33024348      10.24257237       2.06293898      -2.18046607       2.72237931      -3.69695159
 Ni             9.96752335      13.42266857      12.07177813       0.56816960      -5.28107072      -1.07419313      -4.13152869
 Ni            13.01955210      11.31682810       6.87560799      -0.43755319      -0.50550615      -0.18927261      -3.82789668
 Ni             7.46119305      12.49907770      12.26527150       0.52647305       3.67856476      -1.77590459      -3.20281782
 Ni            10.44209739       6.32916071      12.89289988       1.63428881       1.14586467       2.29705792      -3.33819563
 Ni            10.69151349      15.10712612      12.97639666       0.92290787       2.08788104       2.72285202      -3.41248705
 Ni            15.14266230       8.09658265      10.44222882      -0.11229026       0.54871850      -0.39043172      -2.63566551
 Ni            10.91276819      12.45952393       6.60058714      -1.56802688       0.61020580      -3.13954895      -3.13594608
 Ni            15.08294508      13.07669345      11.37143992      -0.88444671      -0.67761997       0.77520176      -3.24924472
 Ni             7.83480102       7.83252502      10.93188350       0.28499884       0.95132999       0.06837373      -4.02110245
 Ni             7.33110297      10.54406650       7.52417428      -0.67722407      -0.65459405       1.73030734      -3.42997867
 Ni            11.88262096      13.25901919      10.03546388      -1.09507379       2.18127705       2.60103449      -4.23971942
 Ni            12.59775194       7.23502809      13.00468365      -0.60254011      -2.15190468       0.51952889      -3.44987733
 Ni             9.60361180      15.59293759       8.99454758      -2.53714336      -0.61908832       0.78293042      -3.06755321
 Ni            11.82664507       7.41333352       9.05394081       0.80575383       1.50484530       0.38724287      -4.17764443
 Ni            10.94665745      10.97263097       7.99468928      -3.54128641      -4.18033080       0.34235614      -3.91231925
 Ni            13.74067031       9.01581670      13.25619482       0.57517912       0.85521007       1.17786373      -3.32650176
 Ni            13.58770698       9.51978293       8.05594446      -0.48768194      -0.65112235       0.77646853      -3.81580902
 Ni             9.90028065       6.30830270       9.00321807       0.46535974       0.91906766      -2.57208221      -3.67748924
 Ni            11.91741600       6.29784747      10.99220660      -0.44381791       0.09600796       0.45098218      -4.04789173
 Ni             6.16154147      12.10219818       9.38347269       1.67590870      -0.35614661       0.19142687      -3.38990786
 Ni             7.64296528       7.03204691       8.77249250      -0.04595625       0.49680772       0.75379985      -3.57215424
 Ni             8.19754616       8.55559557      13.93591964      -0.06167272      -0.54464286      -1.53210890      -3.38433955
 Ni            12.53570692      13.47002066       7.19031633       2.53619647       2.01478609       1.95009224      -3.58467753
 Ni            12.01598675      15.34878130      11.28910462       0.10078577      -1.05068809      -0.40065508      -3.55335091
 Ni             8.78405379      15.09674132      11.82452604      -2.11955707       0.96386792      -1.21415033      -3.55985474
 Ni             9.97260743      10.28858305      12.71612602      -1.92110694       0.80325381       0.74014646      -3.64587376
 Ni            12.59368548      11.93014879      14.87173518       0.13896717      -0.18867145      -0.18742687      -3.10343774
 Ni             8.05981877      12.76063483      14.25005967       1.00098758      -0.02040652       1.03279958      -3.23412293
