      50
 Properties=species:S:1:pos:R:3:forces:R:3:local_energy:R:1 Lattice="21.5500674809       0.0000000000    0.0000000000    0.0000000000   20.7422225612    0.0000000000    0.0000000000    0.0000000000   21.4926575976" energy=-168.430361 virial="-12.38869137         -6.84395190      4.76014575     -6.84395190    -10.73201168      6.78620625      4.76014575      6.78620625     -1.16875532" stress="0.00128953            0.00071238     -0.00049548      0.00071238      0.00111709     -0.00070637     -0.00049548     -0.00070637      0.00012165" volume=9607.138335
 Cu            10.71757004       6.00000000      12.28275648       0.07933806      -0.73784154       1.37223524      -2.54807798
 Cu            13.46303380      12.08263651      12.18136491      -0.29596775      -0.98607127       0.19856810      -2.54595132
 Cu            11.37109418      10.14543754       6.97354183      -0.15195279      -2.00749061      -2.12514571      -2.90241628
 Cu             8.44994873      10.34782976      14.18682082       1.82876759       0.31395823       1.89373034      -2.93850662
 Cu            14.33786068      10.21277328       7.71805463      -0.80818602      -0.03610031       0.58020784      -2.69677355
 Cu             9.43673746      13.22834243      12.63325755       0.15029541      -0.41050796      -0.95439218      -2.85020333
 Cu             6.11063109       8.64660526      11.00035996       0.81173668      -0.46542394      -0.69008246      -2.64636341
 Cu            10.65791647       6.56725046       9.22327120       0.92172771      -1.76925975      -2.65836043      -2.58298846
 Cu            10.91769020      14.74222256      11.12819018       0.11206167       0.33126628       0.18053021      -2.55527189
 Cu            11.24827106      14.02290655       8.26354412      -0.28184600       4.43311748       1.66899611      -2.35256245
 Cu            13.43039585      10.49105963      15.07336511      -0.73599668      -0.21553576      -1.17025233      -2.11908659
 Cu            15.32580016      10.41316714      11.88163980      -0.62256059       0.59270722      -0.02388897      -2.19858397
 Cu             8.68094483       7.81454623       6.88020489      -2.50188614       0.53427563       0.40236160      -2.40894833
 Cu            10.95452816      10.33916874      11.11412249       0.79308119      -1.66577657      -4.08084586      -3.57052608
 Cu             7.12386780      13.32580800      10.37397322      -1.43894449      -0.10388854       1.32873016      -2.59719551
 Ni            11.35382493      13.35485155      14.63262520      -0.48366047      -0.73555475      -0.57317359      -3.18127786
 Ni             8.88701703      12.93026000       9.26577665      -0.77916770      -1.03780647      -0.20380062      -3.73420922
 Ni            13.31442537       6.59938431      11.10808666      -0.24337618       0.27776423       0.51957945      -3.88457553
 Ni            11.29947947       7.49455423      10.87739338       0.86405255       4.54326909       1.95506626      -3.60181325
 Ni            13.40326859      14.34475118      10.93392472      -0.82392049      -1.60581500      -0.33115978      -3.01766696
 Ni            15.55006748      12.61520859      10.01130331      -1.05179876      -0.18505687       0.19483274      -2.90602761
 Ni            14.98710013       7.41087185       9.89989313       0.33799654       0.40646117      -0.17724985      -3.28599109
 Ni            14.44953745       8.66447688      13.73005848      -1.38300885      -0.18166372      -0.37896349      -3.08002479
 Ni             8.43476707       9.38314901       9.04482882       2.25257269       1.83526659       0.04691454      -4.53237768
 Ni            10.33638196      11.15597607       8.45446496      -2.97168327      -0.82815919       4.23278208      -4.20579577
 Ni            12.39913321       6.89096206      14.04394095      -0.48640227       1.42815914      -0.68036407      -3.25625223
 Ni            12.09782897       9.76316453       9.09802722      -1.98932594       1.64115795       0.33337237      -4.19502855
 Ni            12.63917469      12.51566066       8.82869003       2.44488900      -2.40604879       0.27104968      -4.12847028
 Ni            10.49793442      11.43508004      15.49265760       0.28164612      -0.17603869      -1.21649222      -3.37782402
 Ni             7.12759783       7.88181972       8.54099759      -3.46924161      -0.83327749      -1.09556981      -3.14329574
 Ni            13.97992756       9.55301839      10.11721673       0.67068603      -0.57357958       0.85740776      -4.07188132
 Ni            13.04138896       7.88515019       8.71416960      -0.63603317      -1.44462842      -0.02349312      -4.24468501
 Ni             6.00000000      11.15733997      10.99602698       0.67009485      -0.02897643       0.04790622      -3.61121956
 Ni             7.42969571      11.87490341      12.74652339       0.10948810       3.97897911      -0.08899244      -3.52855526
 Ni            13.01452614      10.96756075       6.00000000       0.43825849       0.86197132      -0.03286523      -2.65577124
 Ni             8.59938142       6.61625906      11.51107557       0.35296970       1.20017480       1.15636097      -3.89477619
 Ni             7.31939712       9.90393549      12.41600112      -1.30500186      -4.21670561      -1.05663226      -3.60524048
 Ni            10.68746021      11.17334429      12.97101700      -0.89856001       1.89725289       3.90188839      -3.91694786
 Ni             9.54835854       9.01230438      12.59383828      -0.02916545      -1.16098398      -0.24152266      -4.68838029
 Ni            11.45256012       9.20272249      13.89216953       0.61813607      -0.41500857       0.52408882      -4.45569844
 Ni             9.82648995       7.59659044      14.87858744       0.68509299       0.43884929      -1.76367649      -3.29547087
 Ni            10.74540868      12.75541268      10.08448367       2.99262755      -1.34494957       2.97250810      -4.06378130
 Ni             8.72755864      10.05844955       6.15584135       1.01941578       0.18577217       1.01809563      -3.53229612
 Ni            10.65431317       7.52807386       7.21124002       3.36698979       0.80735902       0.79758570      -2.94660354
 Ni             7.66787391      11.45659605       7.58575316       0.32325890      -1.26222260       1.21371693      -3.93448822
 Ni            10.58180893      12.59866965       6.97007536       0.03652885      -2.09890943      -4.21048912      -3.46952814
 Ni             8.42707833      11.02041986      10.74467931       1.04489830       0.75222778      -0.56990055      -5.04853372
 Ni             8.51416457       6.48884897       9.36832561      -0.36903677      -0.01796348      -0.98564972      -3.28670315
 Ni             7.30977987       7.70137989      13.19883462       1.01242149       0.62667932       0.02953115      -3.69538785
 Ni             8.51075532      13.38445666       7.28903226      -0.46230886       1.86457622      -2.36508343      -3.44032590
