      50
 Properties=species:S:1:pos:R:3:forces:R:3:local_energy:R:1 Lattice="21.5851997137       0.0000000000    0.0000000000    0.0000000000   20.9875846409    0.0000000000    0.0000000000    0.0000000000   21.4837615709" energy=-157.190670 virial="0.51261816           -7.41614734     -3.37248324     -7.41614734    -16.26202425      7.71255445     -3.37248324      7.71255445      2.97537467" stress="-0.00005267           0.00076199      0.00034651      0.00076199      0.00167088     -0.00079245      0.00034651     -0.00079245     -0.00030571" volume=9732.599576
 Cu             8.77746329       9.55991441      13.34865871       5.65390690       0.13540149      -2.40494450      -2.31396130
 Cu             7.42311076       8.27569022       8.97305350       0.73825330       0.39112459       0.65360649      -2.79487967
 Cu            14.18717380      12.82728109      10.01477285       0.27370542      -1.12107411       0.44425903      -3.04306783
 Cu            10.22141955       8.74396027       8.10571139       1.13702202      -1.81651492      -1.17759895      -3.08006073
 Cu            12.55951793       9.88180276       6.11850714       2.30140921      -0.53536874       1.03370878      -2.21640289
 Cu            11.09657247       6.00000000      10.87623304      -0.00575687       0.93528142      -0.29311589      -2.78064431
 Cu             8.52963857      12.57520523       7.71348402       1.20834729       0.70677249      -0.96469864      -2.72710672
 Cu            14.26860366       9.89693556      11.98084155      -0.72582915      -3.68995350      -0.85220159      -2.83255872
 Cu            10.83782167       8.72444430      11.40796508      -0.65340145      -0.51864824      -0.17925972      -3.32886067
 Cu             7.95541660      10.21104263      11.33833075      -0.66740797       0.53750802       0.65052045      -3.07081044
 Cu            13.62253544       7.14289220      10.60646392       0.36602341       1.33323552      -3.22909486      -2.57808770
 Cu            10.28090446      12.20902387      14.47444410       1.02774229      -0.58317636      -0.21751464      -2.96866001
 Cu            11.29583820      11.75717112      11.45487024      -0.56785808      -0.35134378      -1.21047888      -3.36854535
 Cu             8.99688371      14.89416450      13.00256916      -3.24251798      -0.37394968      -0.12057927      -1.87153293
 Cu             8.38177403      13.53724817      10.65150818       1.23319255      -0.67226106       4.00971277      -2.88479765
 Cu             7.23300053      12.19870200       9.45590682      -1.36714726      -2.24582774      -0.47854058      -2.19721158
 Cu            10.58164983      10.68232236       6.00000000      -3.09026013      -1.67189311      -0.74047244      -2.40032560
 Cu            13.21293670      12.23354231       7.55960686      -0.19536909      -1.92591819      -0.66419848      -2.63824059
 Cu            11.01064826      14.44960865      12.69085637       3.30678133      -1.94315363      -0.94827393      -2.01862916
 Cu            11.50649562       8.12661905      13.43167489      -5.12246859       1.85217067      -0.58319181      -1.96070952
 Ni            12.76643068      11.91136938      15.29398188      -0.79217554      -0.49702610      -0.99754888      -3.47950439
 Ni             8.46038477       6.10473566      12.33547755       1.49094193      -0.50553176       1.17355471      -3.59195888
 Ni             8.61968910      10.22801286       7.78629672      -0.22700203       0.92790721       0.34286202      -3.73567162
 Ni             7.28631470      12.16984157      12.47748671      -0.86556149      -0.39605054      -3.21028190      -3.44077880
 Ni            13.07516950      11.47555401      12.77809007      -0.35868889       2.02873356       1.60051917      -4.10124730
 Ni            14.27009589      13.83454368      12.22754162      -0.82495651      -1.23375493      -0.15158071      -3.08756191
 Ni            10.84319223      14.98758464      10.15248335      -0.26919527      -0.62311183       0.15220794      -3.45371858
 Ni            10.32962377       9.89557902      15.48376157      -1.79523531       0.24718840       1.06024223      -3.56790704
 Ni             8.50634405       6.21658555      10.19052748       0.69234664       0.64550155      -0.73858384      -3.67334282
 Ni            13.65281296       8.34659482       7.95624482      -0.55785240       0.77598325       1.52565322      -3.53812075
 Ni            12.01111681       9.88068140      14.34568380       2.35204673       5.92886765       0.10339727      -3.72039241
 Ni             7.99657307      12.21741377      14.35182230       1.28438437      -0.39468810       2.77182811      -3.34276012
 Ni            11.82423075       9.50631134       9.64789441       1.21679191       1.06223415      -1.19677148      -4.01824378
 Ni            10.38682731      11.59654916       8.98734864       1.15107870       0.43473709       0.47445202      -4.96058875
 Ni             9.41378742       9.85219796       9.86486899       0.51833237      -0.53772896       0.09474948      -3.73317402
 Ni             6.00000000       9.41957134      10.54778579       0.27642370      -0.46216964       0.63926107      -3.19934348
 Ni            12.98742780       7.05381233      12.52131932       1.17896168      -2.14355049       1.14817850      -2.94534120
 Ni            11.16179519       6.46158322       8.42562769      -0.25605569       1.31757528       1.07880877      -2.84519656
 Ni            12.42473692      13.65081084       8.98964086      -1.35783704       0.55858120       0.76770353      -3.16925799
 Ni            14.85016675      10.55267748       8.09103259      -0.60793405      -0.58805278       0.74755597      -3.36618464
 Ni            15.58519971       9.10867439       9.85881771      -1.24384279       0.60478090      -0.35817446      -3.25397274
 Ni            15.46690061      11.68013829      11.77333247      -0.43663977       1.71075260      -0.24435724      -3.18322028
 Ni             6.90724142       7.38989533      11.65519179      -0.37298453       1.89608859      -1.27716921      -3.94218472
 Ni            14.33954006      10.33657643      14.52122840      -0.31151849       0.40848459      -0.59733210      -3.76567302
 Ni             8.59433875      14.71071065       8.99533795       0.54283252       1.09149776      -1.69243423      -2.62977704
 Ni             8.15958975       9.95517366      15.27902211      -1.56799118       1.14397701       2.72341302      -3.17259732
 Ni            10.95419984      12.45165053       7.01531373       0.55881814       2.72007936       1.50715508      -3.18881565
 Ni            10.82478028       6.24510349      13.16708059      -1.33837455      -3.43439003      -0.66938557      -3.11314271
 Ni            13.24645364       8.21365874      14.56359087       3.99904630      -1.33534698       1.22363727      -3.50215444
 Ni             6.76469524       9.22496061      13.17630583      -3.68652661       0.20602085      -0.72920310      -3.39374378
