      50
 Properties=species:S:1:pos:R:3:forces:R:3:local_energy:R:1 Lattice="21.1569744855       0.0000000000    0.0000000000    0.0000000000   21.6466229275    0.0000000000    0.0000000000    0.0000000000   21.5411084606" energy=-151.952707 virial="-8.16858454         -14.55538697      1.31923661    -14.55538697    -10.89558003    -15.72106145      1.31923661    -15.72106145    -23.75462338" stress="0.00082801            0.00147541     -0.00013372      0.00147541      0.00110443      0.00159357     -0.00013372      0.00159357      0.00240789" volume=9865.333284
 Cu            13.34833530      11.45926678       8.71660605      -0.78994460       1.23406292      -0.49728805      -3.26396858
 Cu             6.94831123       8.30220706      12.11823942       1.24672112      -0.63021705       0.47468538      -2.72748240
 Cu            11.41077238      14.29279950      13.65398200      -1.07238212      -0.50159330      -0.14074352      -2.54986125
 Cu            11.47489216       6.00816151      12.27765480       1.01503319      -0.44300666      -0.05240417      -2.36062294
 Cu            12.36579227       9.49188014       7.38244577      -2.94363389       0.06782668       0.41054812      -2.96791319
 Cu            11.76046624      10.46674006      12.51058911       0.40108483      -0.18360146      -0.42655901      -3.35026085
 Cu             8.91828054       9.75708975      12.80823612       4.13548719      -1.30209590      -3.94236821      -2.01639804
 Cu            11.99612537       8.07287030      10.25504197      -2.90625559       3.98498754      -0.84530044      -3.24599797
 Cu            10.95630418      12.09990995      15.54110846       2.74347337       1.38517450      -0.07304658      -2.43880070
 Cu            10.75373552      10.73988608       9.24483548       1.00314791      -0.34680817       0.34850572      -3.47481522
 Cu             6.00000000      11.25821497       8.19712690       1.05564969      -0.19901422      -0.08562007      -2.23716452
 Cu            10.87368075      12.95221057       7.16173742      -1.38112577      -0.38570562       2.45907511      -3.17198401
 Cu            10.28159331       7.79904296      12.02776387       1.76247247      -0.35129028       4.04990011      -2.69806105
 Cu            10.55092732      13.27194009      11.39445361      -1.04013557      -1.30145496       0.09616397      -2.91395619
 Cu            14.32985030      12.11772446      11.16310190      -0.53397172       1.93721232       0.31594687      -2.77772013
 Cu             8.23823010      14.44608172      12.46387006       0.58334351      -0.80647956      -1.12972241      -2.78594669
 Cu             9.21568044       8.84762370      14.60299186      -1.03888437      -0.00390269       2.94667484      -2.31528267
 Cu            11.61692045      14.58170355       9.87057041       0.92318806       0.51099678      -0.17567767      -2.78554790
 Cu             8.52285618      12.92590315       9.18031515       1.72752918       0.20591013      -0.73410956      -3.16202610
 Cu             6.39663469       9.03242382       8.95695201       0.88815268      -0.84350529      -0.67842798      -2.67293320
 Cu             6.56111768      12.46816443      10.13035111      -1.01850978      -0.10391889       1.71664112      -2.63259366
 Cu            15.15697449      10.67160317      12.75584024      -0.48916669      -1.14893075       0.00840966      -2.28392274
 Cu            10.99699562       7.66131424      14.48057153       1.26327179      -1.06657110      -0.84677424      -2.28033079
 Cu             8.44837874      11.31259903      11.41269875      -0.57552729       1.12143766      -2.41246692      -3.29948299
 Cu             9.51641791       8.08736562       7.99134744       1.36495986      -1.37658254       0.09258035      -2.74993243
 Ni            13.61719024      14.57423426      11.36201247      -1.19626052      -1.32874519      -0.85883114      -2.50152453
 Ni             8.34923049      11.03371397       6.00000000       0.46439178       0.12691107       1.35487322      -3.21107608
 Ni             6.31824883      12.15572228      12.65135900       1.20168764      -0.72883979      -0.84499726      -3.46662738
 Ni             9.28810724       8.69150994      10.53198728      -2.50555166       2.16009669      -3.11180707      -4.07700964
 Ni             9.31911495      12.41706710      13.31423375       0.70208254       2.20839321      -2.30256007      -3.88194031
 Ni             8.40780589       6.59555864      10.05416036      -1.45128289       1.35264009       0.10642128      -3.49572695
 Ni            10.35296052       6.00000000       9.63293523       2.41157798       0.52112396       0.29163296      -3.60488353
 Ni            13.03819724       8.37652451      13.73639132      -0.21107530       0.83307556      -1.04089370      -3.55450353
 Ni             8.57567577      15.10479983      10.03128487       1.19297167      -1.28872051       0.69403007      -3.12908393
 Ni            12.68380886      12.39006631       6.43738295       2.80773965      -2.16310991      -1.58207124      -2.93126795
 Ni             9.13158223      11.24781963      14.93324880      -2.72360654      -4.12048508       1.62976360      -2.99699668
 Ni            13.55488197      10.20809489      10.48257325      -1.12690004      -2.51296725       0.85346529      -3.67090841
 Ni            13.28405589      13.61817533       8.09633455      -0.52428078       1.15213230       1.10553370      -3.01092046
 Ni            14.39738311       9.79107745       7.66440575       3.11697958       0.76542340       0.05742166      -2.94117740
 Ni            10.61830345      10.27599759       6.40640780      -1.99138057       2.03771214       0.05726121      -3.40793299
 Ni             8.71574893       9.93237314       8.70374594      -2.09118829       2.63036794       0.33452065      -3.80151786
 Ni            14.01525355      11.95854193      14.18342459      -0.96887348       0.62196045       0.04729514      -3.12937548
 Ni             8.87022289      13.51747763       6.88972551      -1.86488348       0.12939673       0.52767700      -2.59740951
 Ni            13.16204293       6.39052493      10.39472943      -0.06455209      -5.34426360      -0.74838128      -2.81766265
 Ni            13.53623984       7.85166093       8.10146421       0.48942336      -1.98241373       1.97454582      -3.49608249
 Ni             7.20953120      10.13953158      13.81617841      -3.08616102       1.38624028       1.65312737      -3.44186839
 Ni            12.84047800      10.29036897      15.06510373      -0.43106856      -0.33053463      -1.34049542      -3.53433487
 Ni            14.39467083       7.85508735      10.98780039       0.95592369       2.72724370       0.98755657      -3.33769417
 Ni             6.29951728      10.02334846      10.92095680       0.54494201       2.93380244       0.31669537      -3.45996863
 Ni            10.38895683      15.64662293      11.87217471       0.02536786      -1.23937036      -1.04040613      -3.29220730
