      50
 Properties=species:S:1:pos:R:3:forces:R:3:local_energy:R:1 Lattice="21.2125978297       0.0000000000    0.0000000000    0.0000000000   21.4292331767    0.0000000000    0.0000000000    0.0000000000   21.6559920788" energy=-144.396208 virial="27.62486195          -5.32196999     -5.46078902     -5.32196999     12.69515025     10.10681446     -5.46078902     10.10681446     31.79398979" stress="-0.00280622           0.00054062      0.00055472      0.00054062     -0.00128961     -0.00102668      0.00055472     -0.00102668     -0.00322973" volume=9844.157935
 Cu            11.25779786       6.00000000      12.51009279       0.81301523      -0.50629766       1.22015887      -2.88457468
 Cu            10.60678817      13.45080121      11.77688307      -0.35301669      -3.49937295      -1.68052131      -2.39510540
 Cu            15.11190665      10.96625933       9.16453082      -0.20969624       2.47214285       2.51194959      -2.59630711
 Cu             8.91593403      11.54320020       8.74210964       5.82193933       3.33905534       1.52312857      -2.10757292
 Cu             9.71217580       9.79757980       7.99375623       4.05042950      -2.98691146      -2.30536721      -3.12129657
 Cu             7.14484813      10.41430418       9.21688220      -2.71561258      -1.58017245       1.22177277      -2.73781599
 Cu            15.21259783      11.76337675      11.96428518      -0.93739839      -0.30501867       0.01565291      -2.43861981
 Cu            12.38801763      12.98039606      13.13159051       1.75834478       0.46045228      -3.50490015      -2.60422395
 Cu             7.17305174       9.92767203      13.78425162      -0.22322982       0.13464517       0.59814759      -2.30842172
 Cu            11.45410322      11.83383140       6.98667809       1.10676461      -1.36434413       2.17042284      -2.56561358
 Cu             9.72841998       7.16346778       8.84764702      -2.79546929       0.91776565      -2.57141184      -2.56555454
 Cu             7.95334164       7.56230548      11.54035501      -0.22622189       2.23378008      -1.07847408      -2.54607506
 Cu             8.65932916      12.27253106      14.97948419      -2.74032077      -0.39431843      -0.66787378      -2.49938465
 Cu            13.54937536       7.40584554      12.73442727       2.06707203       0.74582159      -2.30910218      -2.31829780
 Cu            12.51158150      13.29160010       9.13435578      -1.57878455      -0.67931420      -0.87054345      -3.17401291
 Cu            11.17826916       8.53606387       9.71565866      -1.24237607      -0.45856302       1.85642192      -2.79664906
 Cu            13.12498299      10.68321271      14.24115684      -0.65350400      -0.10401210      -1.17250939      -2.78580324
 Cu             8.60733215      10.16526162      12.13450573      -1.24121570      -0.34421296       0.40228659      -3.13393545
 Cu            11.38081923       8.51521208      12.18820260      -0.71698834       0.93875543       0.82104355      -3.31731770
 Cu             7.93797268      13.36950176      12.33078752       1.37936764      -0.86129127       0.48809067      -2.59788956
 Cu            12.39450903      10.16137700       6.03782607       1.05542801      -2.60387882      -3.03120344      -2.67006389
 Cu             9.15359045       9.88851774      15.42035973       0.06121226       1.49532195       0.29467099      -2.58943070
 Cu            14.67863630       9.00849329       8.39863388       1.94279069      -2.96230362      -0.69799790      -2.20630875
 Cu            10.14051673      13.92948383       9.32679877      -0.10443461       1.46428714       4.37829747      -2.53437992
 Cu             8.76663815       8.14897499      14.17157553       0.44176765      -1.89805678      -1.71286161      -2.56951688
 Cu            10.23954624      13.40613494       7.38997434      -0.03612318       1.53686260      -3.59610219      -1.88747195
 Cu            12.70044858       9.56600695       8.70407183       0.08641660       4.75006805       1.93335202      -2.58382367
 Cu            14.26744943       9.58901059      11.05649380      -0.58341586      -0.07352615      -0.10517027      -2.90093542
 Cu             8.91191623       6.03271151      12.67065851       0.89799166      -0.66902579       0.79859076      -2.22737619
 Cu            10.50712938      15.42923318      11.36596400       0.46509564       2.31575851      -0.96674389      -1.78736328
 Ni            10.50120545       9.14214879       6.00000000      -1.33822139      -0.64693271      -0.12155507      -3.16590987
 Ni            10.42249035       6.26220405      10.57830073       1.20063028       0.40195578       1.07235750      -3.01929903
 Ni             6.00000000      11.56332419      10.65754149      -1.18459492       0.17645185       1.43855285      -3.18355399
 Ni            11.46881119       9.23615641      15.54829889      -0.23655166       0.70377970      -0.53959462      -3.53533775
 Ni            12.11245965       7.26311072      14.22206329      -2.27514809       0.30667384       2.00698017      -2.74987855
 Ni             7.62301563      12.64745349       9.87166518      -1.22275310       2.61033241       3.34042862      -3.66150706
 Ni            12.67939022      11.44840828      11.43362838       2.34255653       0.50728014      -0.97015190      -4.22625380
 Ni            12.99366212      14.97874158      11.16800980      -1.53443618      -0.39078709       0.10373238      -3.18776327
 Ni             7.34880156       8.54082642       7.89864332       0.96722049      -0.21543392      -0.17211752      -3.48289633
 Ni            13.47096944       6.52644598       9.29259466      -0.64208683       0.70502998      -0.49668069      -2.84094160
 Ni            10.62608496      10.95194103      11.72071405      -0.43697391       0.51840202       0.36885896      -4.01944767
 Ni             7.92716002      10.64820811       7.17890665      -2.25848606      -0.95670280      -4.52601937      -3.26578469
 Ni            10.64195405      11.68186641      15.65599208       2.21975234      -0.82814142      -0.51409252      -3.74486609
 Ni            14.24003228      13.36869924      10.49782277       0.88116114      -1.83356202       1.09343783      -3.31771516
 Ni             8.18782273      13.46738987       7.96370657      -2.64247838       1.23563290      -1.09952876      -3.08948446
 Ni            10.30352639      13.15791854      13.86454804      -0.33083848      -0.52938408       0.83447240      -3.49126708
 Ni             8.98622857       9.52192478      10.02196387       0.68043003      -1.72706191       2.18313005      -3.94578018
 Ni            12.53302412      12.87497823      15.13923619      -0.00089726      -0.21240266       3.43655677      -2.78250413
 Ni            12.07746185       8.13628582       7.42757885      -1.05232594      -2.95686604      -1.48180234      -3.62157297
 Ni            13.77252732      10.98443996       7.39781728       1.27421373       1.61763982       0.07983083      -2.61330163
