      50
 Properties=species:S:1:pos:R:3:forces:R:3:local_energy:R:1 Lattice="21.2011772623       0.0000000000    0.0000000000    0.0000000000   20.7967535918    0.0000000000    0.0000000000    0.0000000000   21.3642505862" energy=-187.670853 virial="-15.44799139         12.91811358     -5.95821515     12.91811358      3.21619569     -9.89347280     -5.95821515     -9.89347280      4.40429846" stress="0.00163994           -0.00137137      0.00063252     -0.00137137     -0.00034143      0.00105028      0.00063252      0.00105028     -0.00046756" volume=9419.832634
 Ni             6.68098888      10.59407375       7.92355712       0.88544066       0.42013979       0.22315552      -3.21314050
 Ni            13.87668149      11.86954958       8.05467208      -1.41938801      -0.85045920       0.72379433      -3.24429179
 Ni            10.50373085      10.47117865      12.27917077       3.48926445      -2.12543865       1.45146663      -4.30426861
 Ni             9.91150675      12.09662802      14.72754115       3.29932224      -0.03021440      -0.56836704      -3.91488553
 Ni             9.62056185       8.23000109       8.77576200       2.01384700       1.43903258       1.10791593      -4.32172781
 Ni             8.72217440       6.61181478      13.32354494       3.92171377       0.29299351      -0.32841687      -3.52059280
 Ni            10.63474304      14.16155704      13.78746877       2.09099053       0.22506029       3.36599507      -3.42556892
 Ni             8.97915340      10.88677435       7.17599693       0.72383025      -0.85224832      -0.77928890      -4.18998330
 Ni            15.11167479      11.58562470      11.20477649       0.24932562      -2.18926268      -0.83916121      -3.52431161
 Ni             9.62813197      10.94664014      10.41477725      -2.86121150      -3.92289721      -1.21912090      -4.43951763
 Ni             9.16306044      12.24894374       8.85788721      -0.35536014      -1.80782278       0.00143321      -3.41576799
 Ni             8.91026383      14.14521736       9.75497469       2.85454597       4.35254792      -0.32104974      -3.61598115
 Ni             8.14328369       7.05336661      10.52824042      -0.06780259       1.16443907       3.94236839      -4.02551922
 Ni            15.20117726       9.01655678      11.64644208       0.15218536      -0.41720058      -3.03747933      -3.44814939
 Ni             7.89516187       9.24870008      11.66477594       0.88212005       0.02657582       0.84249066      -4.58801365
 Ni            12.67579858      10.82466186      11.97821094       1.46200047      -0.64855685       0.04660663      -4.65819163
 Ni            13.50339494       8.05429923      12.82316084      -0.48538445       0.09462045      -2.11930979      -3.97558843
 Ni            10.32239232       6.02029137      10.42333031      -0.54718021       0.30060477      -1.40680165      -4.00084946
 Ni            12.44807601      11.65759041      14.75687706      -0.77034504      -0.60189064      -1.06369176      -3.58731624
 Ni            10.92935128       9.73424917       7.82609052       0.84731727       0.78518857       3.14722625      -3.82106091
 Ni             6.90443229       7.28742103      12.73078217      -2.30377882       1.52431178      -1.02399048      -3.40325495
 Ni             9.58041060      13.33707268       7.23211728       0.82061197       1.95371517      -2.41111197      -3.44222360
 Ni            12.99840661      14.34661939      11.64000398      -1.35809522       0.69517931      -1.18997268      -3.40022644
 Ni             9.06170330       9.43428624      13.65546368       0.15766240      -2.85667237       1.93155559      -4.41124732
 Ni             8.70389126      11.32566791      12.80658762      -4.29086371      -0.27339356      -2.27248926      -3.50576234
 Ni            13.00657507       7.35194279       9.65728238       0.11531231       2.12850043      -2.73883192      -3.64634630
 Ni            11.12998959      12.25499553      10.95690833       2.55658056       3.17897083       0.41768245      -4.79224938
 Ni            13.58619118       9.54118636       9.71838574      -0.31439628       0.84722539       0.82463721      -4.15544399
 Ni            11.27156722      11.99158978       7.99081981       0.97157803      -0.72080826      -0.61190147      -4.28733831
 Ni             6.63765891       9.54652323       9.91413830       0.11835965      -0.30778423      -0.13654626      -3.50954720
 Ni            11.21593704       6.00000000      13.69053346      -0.85222772       0.24952683      -1.66138155      -3.34422147
 Ni             8.25125179       6.76801573       8.51097816      -0.99748077      -2.95372496      -3.37107561      -3.12044101
 Ni            12.37817177       7.63780794      14.55967442      -0.49714279       0.70890585       1.00637403      -3.31841895
 Ni            11.78296388      13.76525600       9.11609057      -0.53399708      -0.00622796       1.15275302      -3.95144281
 Ni            11.22436386       9.63717485      15.36425059      -0.35655609       0.80149285      -1.33236133      -3.55540729
 Ni            14.54092574       9.35418310       7.74200261      -0.27488959       0.50331739       0.05683821      -3.32865618
 Ni            10.36077838       8.36147583       6.33816543      -0.01825271      -1.10024025      -0.38465744      -3.71118231
 Ni             7.91393321      12.59815967      10.58736697      -2.83558460      -3.32175202       3.20374047      -3.94740293
 Ni            11.46191545      10.65423964       6.00000000       0.22126514       0.00080652      -0.54727570      -3.72494592
 Ni            14.69075313       9.92149614      13.40632332      -1.40690347       2.25781687       1.78865841      -3.47133202
 Ni             6.00000000      11.20631943      12.67590290       1.14647917       1.68624504      -1.68541862      -3.20993459
 Ni            10.54896143       7.92929533      11.52428366      -0.13251197       0.28801549       0.92927356      -4.66158098
 Ni            12.44067712       6.07419510      11.09233537      -0.88154656      -1.59087947       3.79290328      -3.30098359
 Ni            10.95818024       6.05418365       7.93201642      -0.52202809       2.18393085       1.12202706      -3.29087882
 Ni            10.66736471      14.79675359      11.78192318       0.66503766       0.98208569      -3.10012993      -3.61883068
 Ni             9.33761789      13.22541052      12.46498150      -1.26397508       0.86487656      -1.94652243      -4.13086473
 Ni            12.85713762       8.42935237       6.51873015      -1.13424946       0.41599862       0.45558782      -3.51470073
 Ni            13.90210976      12.65067452      12.53372959      -0.88861260      -0.95971190       2.12481643      -3.56878540
 Ni             6.44551927       9.58192963      13.85896923       1.59877544      -1.82211034       1.09050236      -3.56449708
 Ni             7.93051681      11.49805291      14.73311417      -3.87380141      -1.01282761       1.34655131      -3.54797942
