      50
 Properties=species:S:1:pos:R:3:forces:R:3:local_energy:R:1 Lattice="21.3085843483       0.0000000000    0.0000000000    0.0000000000   21.4118891185    0.0000000000    0.0000000000    0.0000000000   21.6430922645" energy=-144.584088 virial="-7.41028416          -4.59656387     -0.74517022     -4.59656387     -0.87767557      3.83115352     -0.74517022      3.83115352     -7.43236614" stress="0.00075042            0.00046548      0.00007546      0.00046548      0.00008888     -0.00038797      0.00007546     -0.00038797      0.00075266" volume=9874.813329
 Cu             8.61636743       8.65256434      12.87700441       2.51359398      -4.39062527      -4.08936049      -2.24658424
 Cu             8.15077085      13.81323812      12.56247880       1.18007825      -0.48205798      -0.83707973      -2.55612471
 Cu            11.71525786      10.06374286       6.50536965       4.03216627       1.51158956       1.89025439      -2.47137288
 Cu            13.79835173      10.31091108      13.55679336      -0.73630874       0.45970401      -0.03586383      -2.90283441
 Cu             7.73340543       6.49163477      11.34944896       0.63183519       0.89770040      -0.01283103      -2.12185258
 Cu            14.59866907      10.66103866       8.51969097      -0.31172509      -2.69611715      -4.66722783      -2.39668979
 Cu            11.08544342       6.17099667      10.05894715       0.59704447       0.32361235       0.69024333      -2.46303864
 Cu             7.76281934      10.51853031      12.72625297      -0.08861529       1.74156349      -0.57300371      -2.93828403
 Cu            13.42131065      14.63717554      11.61893549      -1.89014766       0.47134829       2.90924921      -2.28472126
 Cu            12.57332340       9.59699213      10.11068544      -0.42723148      -0.67149790      -0.57587828      -3.65792485
 Cu            10.79014035       7.35746189       7.92151257      -2.62160755       0.51283490       0.75196348      -2.68103828
 Cu             7.78462725       9.40799410      14.59194198      -1.76974925       0.50837873       3.70680402      -1.75083841
 Cu             9.82345209      10.65140502      14.54502145       1.26674490       0.44772958      -0.61961606      -2.94084127
 Cu            10.93732042       6.00000000      12.86495331       0.10051490       1.62105046      -1.09762226      -1.93865600
 Cu             7.95598669       8.67509406      10.25484923       1.21365440       2.80607684       3.47172681      -2.62757198
 Cu            12.56226320      12.83757921       6.51239915      -1.02085144      -0.15993138      -0.81740722      -2.54311014
 Cu            10.47011406      12.73885202      10.66465436      -3.94978141      -2.65488097       1.55509402      -2.77492662
 Cu             7.28594828      10.69560610       7.85022669      -0.93086496       2.32407587       2.96521934      -2.48502107
 Cu            13.41163467       6.47811014       8.92929387      -0.64695426       0.24421724       0.29277484      -2.18449021
 Cu            14.39050145      14.17142335       9.83397581       1.44738057       0.63964049      -2.08771563      -2.43690084
 Cu             9.89475566       8.29792780      14.64598581       0.73065227      -0.92722132       0.93135809      -2.31797190
 Cu            13.59991278       8.00682856      12.94282158       1.71662749      -0.15823299      -1.01480050      -2.50536976
 Cu            14.89877931       9.48376901      10.29107450       0.11303752      -1.17880480       2.41259609      -2.56951619
 Cu             7.87274950      13.02304856       9.75712193       0.10470818       2.43636510      -0.57662044      -2.80697211
 Cu            11.48588941       8.51510346      12.83797522      -2.20354981      -1.64749137       0.10570765      -2.83709123
 Cu             7.33973684       7.63254299       8.63142320      -0.20740508      -0.72883423      -3.15277891      -2.08006378
 Cu            12.68502167       8.18055344       7.42427309       2.39365644       1.21702449      -0.11283737      -2.41945196
 Cu            11.76822715      14.03704432       9.83166880       1.74260556       4.58713462      -1.32959060      -2.43365993
 Cu            12.21739877      12.60392351      12.14775850       1.68865932       1.96885351       1.18663185      -3.05703596
 Cu            12.24688352      12.26591684       8.63272365      -2.42047665      -3.04205564       1.13769303      -2.93440757
 Ni            12.85383338      13.35815529      14.32951748      -0.59748352      -0.52697062      -0.85013465      -3.28979686
 Ni             9.61872767      10.05070596       8.51906083       0.07497521      -0.28322555      -0.90275057      -4.95615519
 Ni            10.01333059      11.28893996       6.19085352      -2.45950775       1.13563773       0.51977129      -3.66088852
 Ni            11.75837106      10.54434771      12.11551136      -0.56776437      -0.29978577      -0.36981838      -3.35128839
 Ni            15.30858435      11.27722270      12.10435862      -0.97773172      -0.10989126      -0.72153216      -3.09954290
 Ni             8.09483318       9.27075780       6.69238557       1.82360692      -2.68793532      -1.26089778      -2.90710357
 Ni            14.14354283       6.77400266      10.94784512      -0.72463623       0.99557621       0.25995591      -2.36060543
 Ni            10.07614697      13.30362010      14.23296545       0.10382427      -0.58025016      -0.26935199      -3.49190494
 Ni            10.40982893       8.74796414      10.62542141       0.22358391       0.14892576       0.08403563      -4.40851098
 Ni             9.35077751      14.83752952       9.02653866      -0.60902861      -0.56425737      -0.00730479      -3.39816384
 Ni            11.23613019      14.82420707      13.11708688       0.71349005      -0.68118104      -0.85709958      -3.83552458
 Ni            14.12732288      12.88126373       8.04880656       2.47843061       1.14000259      -1.73410860      -2.47425354
 Ni            14.38896248      11.97259627      10.01996711      -1.09719983       1.13401289       5.42281917      -3.53682248
 Ni             6.79183123      11.98513319      11.59284813      -1.18778595       1.20500663      -2.20914284      -2.98677300
 Ni            12.46730977      10.21140407      15.64309226      -0.38116622       0.75837345      -1.66081337      -2.44739450
 Ni             9.75200948      15.41188912      11.02421227       0.42257675      -1.00975934       1.11939310      -3.62714528
 Ni             8.59666313      11.13087812      10.35728781       0.32472404      -2.76841644       0.96055531      -4.14134942
 Ni            10.28588372      13.62050289       7.54157764       1.10175051      -1.80226540      -0.19061244      -3.93819318
 Ni            10.12844075       8.87236076       6.00000000      -1.90938442      -1.88489009      -0.01988508      -3.06736156
 Ni             6.00000000       9.74572164      11.01770012       0.99703533       0.70014416       0.27983956      -3.24094770
