      50
 Properties=species:S:1:pos:R:3:forces:R:3:local_energy:R:1 Lattice="21.1075256850       0.0000000000    0.0000000000    0.0000000000   21.2925849514    0.0000000000    0.0000000000    0.0000000000   21.9819010472" energy=-142.328393 virial="0.24330030            0.55383941     -3.01396612      0.55383941      9.06896207     -2.53521839     -3.01396612     -2.53521839     -9.60741479" stress="-0.00002463          -0.00005606      0.00030508     -0.00005606     -0.00091797      0.00025662      0.00030508      0.00025662      0.00097247" volume=9879.408962
 Cu             9.40170147      13.68690123       9.17476474       2.79472822      -1.16988233       0.65177038      -3.18389896
 Cu             7.39356464      10.88121658      12.04355577       0.09794666      -0.67911176      -0.38139804      -3.23596502
 Cu            13.90392833      13.21496649      13.56825956      -0.79167432      -0.03823263      -0.67243347      -2.31542991
 Cu            11.40798916       7.73481962       9.70476026       1.11480527      -0.10550504       1.17384541      -3.00924875
 Cu             9.76945619      10.03247285      10.87556634       0.64920497       2.88360687      -2.51274115      -3.11538538
 Cu            10.36934002      12.41408682      13.67212208      -0.68664919      -0.31799175       1.07385311      -3.10275115
 Cu             9.80096436      10.90809880       8.62826084      -1.02621749       0.22385941      -1.21251919      -3.25002826
 Cu             9.39155041       9.45245398      12.90102699       0.18129512       0.28946685       2.76543233      -3.13966068
 Cu            11.87659572      11.73473472       8.94978430       0.90228410       0.78462457       1.18936788      -3.25933100
 Cu             7.21544267       8.34563375      14.14068740      -1.73761624      -1.52143095      -1.18559998      -2.11832623
 Cu             9.58634495      13.17727316       6.35093474      -1.96016925       2.59921870       1.38796849      -2.48540555
 Cu            12.37621687      10.82023637       6.27913342       1.14688819      -2.54504914      -0.36786290      -2.76924051
 Cu             9.95875944      13.01313693      11.58004165      -0.12823655      -0.42793952      -1.29853544      -2.94195541
 Cu            10.19805703      14.54058003      14.17969235      -0.87041552       1.22777284      -0.26992766      -2.22148051
 Cu             8.76442708       7.00025431      13.17070254       0.60122530      -0.47539404      -0.57247759      -2.55782060
 Cu             6.83348206       8.61343452       7.94536040       0.60238860       0.30167155      -0.93397531      -2.65144845
 Cu             7.91932862      14.42108193      12.21254752      -1.62032585      -2.58386521       2.58190248      -2.45636367
 Cu             9.61775161       7.35776391       8.54571037      -2.26537243       0.07986051      -0.61519313      -2.70816257
 Cu             8.13557244      10.18336676       6.32388435      -1.64751842      -0.87026918       1.09180845      -2.25311593
 Cu             6.15375533      12.39580822      10.37176868       1.13507355       0.26552072      -0.12586558      -2.37321345
 Cu             8.20475067      10.08736876      14.71993884       1.12398648       3.02581365       0.77231782      -2.45993813
 Cu             7.82569662       6.26283313      10.92747601       0.56830137      -0.14730666       0.15580411      -2.61194182
 Cu            12.64175172       9.47504351       8.91780948      -2.04853699       0.40590827       3.42585849      -2.55317029
 Cu            15.10752568      10.21950511       9.80007522      -0.02241415       0.32538431       0.43724929      -2.50790917
 Cu             9.98988922      11.14045578       6.00000000       2.39433809      -1.92292634      -0.84066648      -2.41133856
 Cu             7.19065496      12.28769696      14.17198891       0.85582227      -0.53765286      -0.67741220      -2.19040942
 Cu            13.19152552      10.36339492      14.27430182       3.28197403       1.30169521       0.84062579      -2.28444809
 Cu            12.70068211       6.80908272      11.49535053       1.96145293       1.87385880       0.02232790      -2.35572007
 Cu            12.41710416      15.10493745       9.03158462      -0.58397738      -0.77719069       0.15714334      -2.37506819
 Cu            11.99461606       8.58037320      13.67760937       0.11970316      -3.45897525      -1.92864608      -2.66477006
 Cu            11.12918570      14.98350087      12.05804655       0.82167137      -0.25177277      -0.36122206      -3.16926892
 Cu             6.00000000       8.40765891      11.59926545      -0.92576600      -1.35091740       4.30714438      -2.42820058
 Cu            10.83037512       8.80259199       6.83516501      -0.82841063       0.64322241       0.85506345      -3.09327757
 Cu            12.27410817      11.37792851      12.34687806      -0.79817368       0.06679465      -1.38392923      -3.50793310
 Cu             6.15701217       9.90310580      10.03992405      -0.81034392       4.39097917      -1.96836967      -2.56528110
 Ni            13.66641475       9.65429538      11.61136768      -0.96545209       0.38081933       0.51070050      -3.71001211
 Ni            13.93380288      13.08631210       8.92981273      -0.89506713      -0.38364831       0.68051519      -3.71179705
 Ni            11.64753049      12.64239212       6.84085239       0.25960298       2.51105041       1.19519805      -3.11236394
 Ni             7.46751625      11.67666559       8.23502504       0.03433696      -1.16276896       0.48510002      -3.99601108
 Ni            14.28870657      12.29438866      11.56723040      -0.24454160      -0.59716832      -1.34476102      -3.56576204
 Ni            11.09300275      10.43467466      14.02914555      -2.96165107       0.98727120       0.31818975      -2.35243134
 Ni             9.96994781      11.10370923      15.98190105      -0.01742387       0.08272297      -0.54615246      -3.06882339
 Ni            13.10098988      14.51823910      11.05191284      -0.07149428      -1.29826193       0.75958096      -3.23150040
 Ni             7.36216382       8.21238225      10.04388714       4.06505342      -0.53344323      -1.09521257      -2.81750318
 Ni            10.79941002       6.00000000      11.43095066      -2.72533457      -0.95029435       0.31212282      -3.03844132
 Ni            13.96227832      10.63082238       7.92494756       1.38282339       2.56036543      -1.61019235      -3.24788885
 Ni            12.89106809       8.06582127       7.43686317       0.32509365      -1.78822693      -1.31731000      -3.08821112
 Ni             7.53198478      13.89046756       8.27756638      -1.80883754       0.20932426      -0.38871516      -2.99722212
 Ni             9.73250708       7.99151649      11.34468631       0.03192336      -2.54851439      -0.81568023      -3.66464618
 Ni             9.21024077      15.29258495      10.90778961       1.98969675       1.02292783      -2.72409141      -2.39887145
