      50
 Properties=species:S:1:pos:R:3:forces:R:3:local_energy:R:1 Lattice="21.2113495725       0.0000000000    0.0000000000    0.0000000000   21.0152767720    0.0000000000    0.0000000000    0.0000000000   21.4109137224" energy=-131.823378 virial="-2.08684406          -8.47554406     10.23708871     -8.47554406      4.40737896     -4.47578888     10.23708871     -4.47578888     -6.43992349" stress="0.00021865            0.00088803     -0.00107260      0.00088803     -0.00046179      0.00046895     -0.00107260      0.00046895      0.00067475" volume=9544.179901
 Cu            10.76594665       6.29343353       9.70820947      -1.45276469       0.06040329      -0.34289487      -2.87910008
 Cu            11.27553655       8.63052091       9.89802673      -0.06119226       0.30847195       1.54868627      -3.25602326
 Cu            10.37256463      12.86958660      11.34273920       1.02832818      -0.92309212       0.95248298      -2.99733819
 Cu            11.12149142      10.80723899      13.16230833       1.31679109       0.09871659      -0.94757136      -3.03154958
 Cu            12.23534861       8.77911964      13.27827020      -0.48238443      -1.55711718      -1.27202865      -2.60693640
 Cu             8.43604638       8.95224184       9.01706484       1.15514089       1.68856729      -0.72538829      -3.18976355
 Cu             9.52766955       9.40231297       6.72821081      -2.44914506       0.28221244      -0.93158650      -2.56751581
 Cu             9.30229946      12.63157165       7.52582947       0.71084777      -0.40965461       1.18761099      -2.43758064
 Cu            13.77325381      13.09552846      13.36645834      -2.14255047       3.01379162      -0.17773776      -2.24347832
 Cu            14.32642723      13.26261670      10.27064573      -0.94036059       3.05333414       2.70413491      -2.31816842
 Cu             8.27967217      14.64655933       9.57108251       0.60041415      -1.21098573       0.86918835      -2.04413464
 Cu            13.85486771       7.72320072       8.71406998       1.24147644      -1.98106999       4.53908893      -1.86656856
 Cu             6.40699713      11.80435630       9.59126625      -0.81942034      -0.16814222      -0.60108298      -2.47563186
 Cu             6.49164544      10.35575314       7.61482223       1.53039339       1.61306739      -2.47918176      -2.23009545
 Cu             7.84798852       9.38830763      12.91653556      -2.34536620      -0.74561596       1.70023867      -2.73966097
 Cu             6.95890312       7.55942406      10.83923790      -0.57673096       0.98942699      -0.03949794      -2.91535332
 Cu             7.23126798       9.92307977      10.80026553       1.77362921       1.69019436       2.12678748      -2.91432643
 Cu             7.59785077      14.19915863      12.48706643       1.16111004      -0.47463043      -0.73948909      -2.18989936
 Cu            12.53863905      10.01354216       6.00000000      -0.77698419      -0.13852160       1.71912851      -2.90781568
 Cu            12.00574622      11.36498308       8.70982053      -0.31943375      -1.42917297       0.25962500      -3.33474077
 Cu            14.19770144       9.78586904       8.76467912      -0.28114707       1.28893503       1.39427044      -2.73715837
 Cu            11.86127861      10.19657187      15.30189520      -3.29615910       0.36786926       1.70135719      -2.12931248
 Cu             9.89319273       8.70761598      12.66251414       1.64390631      -0.67739069      -1.69243039      -3.18068447
 Cu             9.94469894      15.01527677      11.33598100      -0.55654794       0.90896843       0.00924317      -2.08310767
 Cu            10.76840995       6.01213577      12.53463269      -0.90592746       1.22276408      -0.41288217      -2.40695228
 Cu            10.62842945      12.16832317      14.95951924       0.37238271      -1.40161683       1.15081676      -2.29469561
 Cu            12.24666640      14.81683533       8.48943901       0.14739363       0.26441098       1.02865529      -2.21994721
 Cu            14.64461105       8.33588747      12.48359802      -0.61745772       0.53293259      -0.18812741      -2.26211406
 Cu            12.69157381       7.47155128       7.10504737      -1.52102357      -1.27179288      -4.29556010      -2.09335152
 Cu             8.67343568       7.10232097      13.74738551      -0.35657342      -0.66498002      -0.56080426      -2.27868452
 Cu            13.14991813       9.80614029      10.84374513       0.04864964       0.47690656       0.87263012      -3.16950433
 Cu             7.71426680       6.97697021       8.59269708       0.82859862      -1.84519957      -0.02582124      -2.47406934
 Cu            11.99124703      13.15065193       7.01895436      -2.17953283      -0.85509619      -1.66922147      -2.06787259
 Cu             8.91488454      10.12751826      15.41091372       0.70227552       0.22814748      -1.42196635      -2.56652199
 Cu            12.59309535       6.77708696      11.28137842       0.64511474       0.95928085      -0.09297837      -2.47975264
 Cu            13.62145652      12.99348123       8.32255333       1.14681740      -0.48226019      -1.17558554      -2.52347356
 Cu            12.42560260      14.77594998      12.10406039      -0.53284091      -0.83120288      -0.73074896      -2.30828606
 Cu             9.64774599      13.91343219      14.12404528      -0.86850982       1.27545550      -2.13226607      -2.34593393
 Cu             8.50164348      12.11634954      10.19755219      -1.31302004       2.30193846       0.14211321      -2.61294257
 Cu            13.70791994       9.78992728      14.52215676       3.98587537       0.23237710      -1.06784554      -2.18530141
 Ni             7.19317701      11.22910727      14.27278636       0.48510166      -0.11350122      -0.45126587      -3.03285185
 Ni             9.84640319       6.71709713       7.13014712       0.34496787       1.54642908       0.83687305      -3.07455137
 Ni             9.04380067      11.16209542      12.52487922      -0.30033318       1.44214180      -0.26990033      -4.27637871
 Ni             6.00000000       9.27971649       9.25550044      -2.23836078      -2.74828556       1.12968925      -2.53375896
 Ni             9.91442032      10.61127119       9.84475021       1.87722152      -1.59857666      -0.58311905      -3.86114228
 Ni            11.18601005       8.79707667       7.74673063       1.24017257       1.06803343       1.27051054      -3.03594654
 Ni            15.21134957      11.52120954      10.99337574       1.29035221      -2.36507210      -3.08650785      -2.75677395
 Ni             8.24136595       6.00000000      11.40280669       1.93446007      -0.25288191       0.49774840      -2.86004910
 Ni            14.23123618      11.12822981       7.19906727      -0.18960972       1.37006671      -1.74748039      -2.28674363
 Ni            14.76000850      11.39744354      12.95829524       0.31195547      -4.13898387       2.22009107      -2.53983335
