      50
 Properties=species:S:1:pos:R:3:forces:R:3:local_energy:R:1 Lattice="21.1439595220       0.0000000000    0.0000000000    0.0000000000   20.8356305230    0.0000000000    0.0000000000    0.0000000000   21.2010009996" energy=-124.336656 virial="37.28908176           9.61401501      6.81184764      9.61401501     28.99317751      3.52697172      6.81184764      3.52697172     17.02526594" stress="-0.00399238          -0.00102933     -0.00072932     -0.00102933     -0.00310418     -0.00037762     -0.00072932     -0.00037762     -0.00182282" volume=9340.052830
 Cu            10.32715975       8.59020907      12.53483411      -0.20821998       0.90025404      -0.58916166      -3.03868322
 Cu             7.40007199      10.02970465       9.18363657       0.48165367       1.29526849       0.05405370      -3.17379826
 Cu             9.04269583      10.48460569      14.16438434       0.78211625      -4.63473746       3.19297353      -2.24963119
 Cu            11.61955020      13.78618080      12.73093965      -0.05730557      -0.62008745      -0.52254253      -2.17298002
 Cu             8.12474166      12.36930734      14.11939268      -3.44240370       2.17808676      -2.14164788      -2.12654850
 Cu             6.52560833      11.45178629      11.46297354       0.56882206       0.92176281      -0.62156437      -2.71130579
 Cu            11.54717902      13.01628878       6.75581469       1.31032578       0.64609006      -0.50471186      -2.09686163
 Cu            10.28386790       9.47970328       8.68020198       0.42037046      -0.53381467      -0.16432660      -3.49761590
 Cu             7.80502508      10.21673943       6.37778606       0.00380875       0.61303165       1.03364455      -2.22414817
 Cu            12.80864633      11.48712507       7.64231580       0.64982998      -3.24558767      -2.02958696      -2.53373715
 Cu             9.36679539       6.41785079       8.51455729      -0.67806497       1.07854632      -0.53151075      -2.56914214
 Cu            10.76616648      13.82947248       8.98819583      -0.07616471       1.83514495      -1.94616365      -2.93278939
 Cu             7.49894318       6.00000000      11.58413256       0.56085657       1.46002349      -0.12475108      -2.28858181
 Cu            10.71186392      12.61416280      10.72418699       2.47397768      -1.16426537       2.73253984      -2.67966655
 Cu             7.05958410       7.82780195       8.77810852       0.75592086      -1.42670992      -1.14562638      -2.56645021
 Cu            13.33819664       9.59062435      14.44332357       3.93373952       1.94492495      -1.11438236      -2.06196077
 Cu             9.47707673      12.72551758       7.09341084      -1.44908902      -0.48407641      -0.01039201      -2.85481101
 Cu            13.84212303       7.68289781       7.80334035       2.41816842      -1.05085615      -2.13142592      -2.20753835
 Cu             9.85978160      12.16666890      15.20100100       3.14127823       1.26728021       1.48361131      -1.79097352
 Cu             8.67274495       8.10745525       6.71388625       0.17752204      -0.04828818       0.98583757      -2.43202418
 Cu             8.60237300      12.64702103      10.55678942      -0.76313583      -4.12838255      -0.32230495      -2.71800534
 Cu            15.01956897       9.05288943       9.20200824      -0.22774232       1.01029682       0.31150076      -2.46009956
 Cu            11.71710045       7.60217736       7.36773025      -2.49570765       0.48746440      -1.29294419      -2.35013345
 Cu            10.22567447       6.26300044      11.94039481      -0.47241996      -0.45500083      -1.18741496      -2.85950152
 Cu            12.26862642       9.55363685       6.00000000       1.00847175      -0.45921239       0.57995578      -2.26764275
 Cu            13.20830369       8.05742722      12.02578414      -0.79286170      -1.44087451       3.86423405      -2.59358730
 Cu            12.50310410      11.71766913      12.11533593       0.21578792      -0.64089766      -1.85135059      -2.56413435
 Cu             7.18277323       8.16265538      13.98994541       3.00075026      -3.33080696       1.59188231      -2.01876939
 Cu             6.43520521       9.70219778      12.94848395      -1.96523514       2.90053605      -2.02053688      -2.17703180
 Cu            15.14395952      11.79447162      11.14694914      -1.16397564      -1.25627225       0.42356910      -2.13865046
 Cu            13.85470470      11.65995523      13.79215553       1.10550302       1.07023369       0.62078801      -2.01310648
 Cu             7.46662282      12.12802290       8.01838363      -1.92542581      -4.59638758      -0.74206434      -2.38363114
 Cu             8.54556548      10.32295161      12.19989889       0.48591345       2.49993422      -2.81656459      -2.10978781
 Cu            10.15531738      10.23642088       6.21528797      -0.33330158       0.73720643       0.41523908      -2.67788230
 Cu             7.89127118      14.01960071       8.54096924      -0.10139696       2.74456616      -1.99528162      -2.03406609
 Cu            11.65243036       8.49954603      14.51305273      -3.93789750      -2.63893275      -0.16315370      -2.30576809
 Cu            12.09056357       9.43891636      10.96606012      -2.59710274       4.76587195       0.39510450      -2.59821030
 Cu            14.98539438       9.05387362      11.53421316       1.99648182       2.51107233      -0.08820468      -2.25183518
 Cu             8.79142077      14.83563052      10.20554885       5.18513586       3.84840165       1.64064713      -1.91131486
 Cu             6.00000000       7.78899073      10.69645844      -2.59696010      -1.03856547       0.49895679      -2.03775927
 Cu            12.53290767       8.18329887       9.35240380       0.20202890       0.20284737       0.68377898      -2.49717567
 Cu             7.82062091       8.70377173      11.08490336       2.08394464      -1.57163236       0.34957677      -2.33612497
 Cu            12.12519433       6.28142996      13.30732849      -0.34764346       0.43633418       1.05712176      -2.49149839
 Cu             9.66653433       7.14021661      14.29885010      -0.15740321      -0.06881709      -0.15973414      -2.41520549
 Cu            11.42432541       6.30248263       9.40527219       0.00554164      -1.41663802       1.38085897      -2.76752501
 Ni            12.54445196      12.56702858       9.34894402       0.19289849       1.11725737       2.75762053      -2.90653528
 Ni             7.02201874      13.97789107      10.82452834      -5.58537370      -0.04327653       1.61785800      -2.49272191
 Ni            13.09356704      14.41261607      10.62207173      -1.03945826      -0.67534092       0.39565661      -3.24630820
 Ni            13.03013920       6.07740001      11.20085787      -3.30127517      -3.41154798      -0.09052543      -3.05963520
 Ni            14.57526035       7.01083233      10.31521996       2.55471667       1.90857285      -1.75913552      -3.44376027
