      50
 Properties=species:S:1:pos:R:3:forces:R:3:local_energy:R:1 Lattice="21.1047844403       0.0000000000    0.0000000000    0.0000000000   21.4646299124    0.0000000000    0.0000000000    0.0000000000   21.4775776394" energy=-124.530864 virial="15.33804135           3.54268081    -18.54265794      3.54268081      7.08830897      1.33873429    -18.54265794      1.33873429     30.70190871" stress="-0.00157645          -0.00036412      0.00190582     -0.00036412     -0.00072854     -0.00013760      0.00190582     -0.00013760     -0.00315555" volume=9729.479856
 Cu            11.11824305      11.28216904      15.47757764       0.13343904      -0.09481593      -1.77671952      -2.12730496
 Cu             8.08315383      11.55801248      10.61431357      -0.31478002      -5.69680178      -1.46516431      -2.43310174
 Cu            10.96352698       8.74307446      12.15823550      -1.84366154      -1.25383700       1.00816107      -2.97222544
 Cu            13.46357796      12.72829663       9.58572910      -1.15922739       5.19700374       0.75003465      -2.68297412
 Cu             8.05313001       7.69366924      13.05081898       0.58683438       0.64252454      -0.29678812      -2.45547190
 Cu             6.66778174      13.44014387      10.14715422      -1.38706773       0.61170621      -1.85434295      -2.46315392
 Cu            10.08947734       7.12573857       9.92026503      -0.54058532      -1.67873700       1.81661852      -2.73793949
 Cu            10.63169930      13.38855575       8.04531688       1.16506884       1.85076345       0.56283253      -2.55978932
 Cu            12.97583058       9.42099893      11.64446630       2.23084907      -2.42320290      -1.19275987      -2.52709031
 Cu             6.86116815      12.47245583      11.91258507      -3.19290458      -1.82463080       6.90477933      -1.62382048
 Cu            10.64295763       9.62405298      10.08317597       2.89265862       2.84024936       2.02834458      -2.97707285
 Cu            11.29126136      12.69558525       6.18582348       1.11323892      -1.18523458      -1.96432359      -2.17900798
 Cu             9.33324395       7.78645668       6.82843119      -0.55801742      -1.69814828      -2.18105103      -2.11690257
 Cu            11.23048937      15.46462991      11.32893964       2.91114503      -0.67583324      -3.44040859      -2.33803921
 Cu            11.81082679      12.79516690      11.07998617      -3.17188012      -1.08986058       0.73919313      -3.03880859
 Cu             6.00000000      11.17376987       8.75469777      -1.29815330      -1.84056008       1.57324049      -2.22304026
 Cu            12.91495575      10.78639633       9.98705049      -0.15373347      -2.19067059       3.89650197      -2.38178474
 Cu            13.37662157      13.91640989      11.99283110       1.25358338       1.00980550       0.46219805      -2.39900146
 Cu             7.49146726      14.67249055       8.67526435      -1.14389167       2.09809181      -2.12557935      -2.02365417
 Cu             6.65071938       7.96273513      10.99123163      -0.10336279       0.38833973       0.30888423      -2.53170345
 Cu            12.31999909      10.73078103       8.00141349      -2.57182476      -0.03479876      -3.83163829      -3.30091032
 Cu             8.58491947       9.24165996      14.93212914      -0.01230274       0.56190127      -1.02093753      -1.94013378
 Cu             8.13715610      10.75676096       8.20292207       0.52462943       1.08617357       3.69408059      -2.61250394
 Cu             7.14783927      12.59647544      14.26829443       0.80870159      -0.87936061      -0.07314064      -2.33770568
 Cu             9.45705765      15.06419337       9.18275783       3.25524584       0.56968863       1.18567450      -2.53568191
 Cu             8.18111008      10.26657748       6.21351841       0.75698922      -0.96185330      -2.67340155      -2.26643551
 Cu             9.77765623      11.75175353      12.95989716       0.33156933       0.82984007      -0.07349544      -3.59106602
 Cu             7.55732948       7.51965759       8.43501351       0.53589658       0.82626992       0.99834369      -2.72812167
 Cu             9.78560775      12.19638120       9.58973617       2.77827956      -2.00883916      -1.60012573      -2.80799266
 Cu             6.19956764       9.97005615      12.78449381       1.45357543       0.22035156      -0.68314153      -2.36428140
 Cu            12.93268886      12.98511012      14.01771564       1.20354771      -2.22712596       0.66974035      -2.18316587
 Cu            12.82533118       7.10597918       9.93274251      -0.06388627       0.76271427       0.93457174      -2.24950229
 Cu             9.02124758      13.48952275      11.13715705       1.01291841       2.75597037       1.47394931      -2.56674244
 Cu             8.53753064      13.69132034       6.80373308       1.85159268      -0.16313183      -0.23634998      -2.52607942
 Cu            12.27050916       8.84970458      14.32781528      -0.68328199      -0.45560532       0.38301783      -2.23449678
 Cu            14.55135717       9.71434283       8.75212405      -0.29009326      -2.56510555       0.88545254      -2.48260452
 Cu            11.36631955       7.86712263       8.37720866       4.08974664      -0.91749138      -2.40698055      -2.24250661
 Cu            11.45884706      14.46514439      13.64025223      -0.36022114      -0.05203269       0.09891039      -2.60933308
 Cu            10.25542724       6.00000000      12.17260710      -0.51656516       1.46949409      -0.30766705      -1.94148728
 Cu             6.80039041      12.82690442       7.77398592      -0.70490962      -0.04487594      -1.05854895      -2.33827910
 Cu             9.78130921       9.15026198       8.27680397      -3.44338045       4.12905433      -1.74985030      -1.90072388
 Cu             7.46627287      14.43415624      12.68430630       0.16889041       0.84312368       0.73774227      -2.47489587
 Cu            12.57015191      10.74000054      13.27064844      -0.93353044       3.05755029       1.05518334      -2.67045111
 Cu            12.47233239      15.13178214       8.70422074      -1.17037822      -1.14868298       0.82486246      -2.11924079
 Cu             9.70907943      15.34471726      12.67451103      -4.44494882       0.13721395       1.93073014      -2.25790109
 Ni            11.27095377      10.22420191       6.00000000      -0.71159104       0.16751783       1.20021057      -2.77889581
 Ni             8.61670766       8.68808554      10.25906937      -1.28570842       0.46883097       0.41059318      -3.70440303
 Ni            15.10478444      10.17299019      11.74074192      -1.46979920       0.32403404      -1.12127871      -2.62604285
 Ni            14.78095279      11.78013605       8.40427488       2.51741695       0.39918115      -2.32443031      -2.25756700
 Ni             9.30256524      13.51111806      14.79756822      -0.04613020      -0.13615810      -1.07572756      -3.08982584
