      50
 Properties=species:S:1:pos:R:3:forces:R:3:local_energy:R:1 Lattice="21.5138738701       0.0000000000    0.0000000000    0.0000000000   21.8576981963    0.0000000000    0.0000000000    0.0000000000   21.1423239664" energy=-118.208732 virial="20.18288993          -4.48401163      9.92804193     -4.48401163     16.11202690      1.69936483      9.92804193      1.69936483     20.04412153" stress="-0.00203005           0.00045101     -0.00099859      0.00045101     -0.00162059     -0.00017093     -0.00099859     -0.00017093     -0.00201610" volume=9942.045961
 Cu             8.07111994       9.89221427      14.45726209       1.48318153       1.00661987       0.78824790      -2.21451678
 Cu             6.39877782       9.83472031      11.23062086       0.93855281      -2.79976519       0.28654682      -2.40655528
 Cu             9.48851159       6.82595740       8.47622426       1.17397019      -0.83483712       0.15935379      -2.45248825
 Cu            10.44509343      11.78843086      15.14232397      -1.16478267       0.21982584       0.06307565      -2.36227394
 Cu             8.52019840      10.98204314      11.60256891       0.20946295      -1.07503229      -0.16008377      -3.37629018
 Cu            10.79493711       8.66193978       9.58369535       0.39066463      -1.28498247       1.10936465      -2.79267935
 Cu            10.48536270      11.93882908      12.67533303       0.54639807       1.42352131       0.63094643      -2.88849971
 Cu            12.99130026      10.92739374       7.07957184      -0.61491255       0.65435730      -3.26295581      -2.40916224
 Cu            13.56586890       9.46730920      12.36947602      -0.83222433      -3.34138437      -1.79443037      -2.71266590
 Cu             8.50133493       7.62327764      11.15437747       0.38527995       0.89556967      -0.77310399      -2.86617711
 Cu             8.56640940      11.37396294       7.56041574      -0.90369726      -1.00304915      -0.56118755      -2.22601580
 Cu             9.00726173      14.90888234      12.70510846       1.05693782       1.10920755      -1.23443059      -2.02994989
 Cu             8.11588627      14.48140635       9.89508200       1.32912725       0.28625959       0.83341110      -2.40516260
 Cu             8.45483656      12.87179380      13.08290444      -1.44013731      -1.43507665       0.68592667      -2.58426159
 Cu            14.23816443       8.98187823       7.61232341      -0.20654365      -0.51944351       0.46984751      -2.29962748
 Cu            11.90316886       6.29955572      11.63349421       1.55089927      -0.00307226       1.13990684      -2.03876557
 Cu            11.77181330      12.03395737      10.81107500      -1.29862186       4.32812666      -3.43428056      -2.49544589
 Cu             9.13782759      10.08665576       9.08973658       0.14375510       0.68046927       4.12433569      -2.51925033
 Cu             7.92315288       8.30467393       8.75889754      -2.44267086       0.26405998       0.34871912      -2.51406489
 Cu             7.66886690       8.09252683      13.32527981      -0.12718612      -0.35664319      -1.69495935      -2.10867924
 Cu            13.52461589      11.52649412      11.77547958      -0.22977804       0.27737230       2.28203771      -2.12440221
 Cu            12.24612314      14.54912403      12.95806003       1.30731886      -0.83096189       1.36573009      -2.23139360
 Cu            15.31840630      11.90435089      10.82247054       2.29256944       0.26217391      -1.22228486      -2.26180327
 Cu            11.07205250       7.59086956      13.20027643      -0.63021777       2.04652026       0.57216339      -2.41541010
 Cu             6.00000000       9.96136904       8.82092920       1.82259949       0.55413442       0.30986368      -2.38895200
 Cu            13.37144847      10.72638631       9.07726393      -1.77791880      -0.05376960       5.00147998      -2.65839969
 Cu            10.97668203      10.39786427       6.00000000       0.79069761       2.15761570      -1.94413748      -2.16116057
 Cu            10.50805502      13.81893976       6.54012419      -2.52441612      -0.55748785      -2.00529609      -2.08777593
 Cu            11.91412942      10.65655570      13.97117257      -0.87927495       0.77582716      -2.59682038      -2.39183156
 Cu             6.40502856      13.29831205       8.99685408       0.18026561      -1.31360414      -0.33009396      -2.03780351
 Cu             6.57600639      11.29139986      13.65485795      -0.44057056       0.56620808      -1.26278783      -2.19877200
 Cu            14.16427512      13.92995034       8.55247186       2.44517952      -1.23209006      -0.48545973      -1.99728985
 Cu            11.08238628      14.64105525      11.20808098      -4.55722209      -0.93325935      -0.07949888      -2.17265407
 Cu            12.79217603      14.65512987      10.00445861       1.36917271      -0.59708087       0.71592089      -2.26845004
 Cu             9.74748467      12.88907679       8.62475189       1.17005753       0.92630852       1.91983694      -3.02024275
 Cu            11.08863263      15.85769820       9.33321998      -1.06902762       0.10242589      -0.95251710      -2.22485243
 Cu            14.46746347       7.56859331      10.23629230      -2.27910063      -1.54217889      -0.63452646      -2.21724424
 Cu             6.12544231      11.94561776      11.23836919       0.33481659       2.37558501      -0.34172365      -2.41657512
 Cu            11.72585603       7.78338360       7.73317814       2.51832305      -1.12212715      -0.80616947      -2.42662586
 Cu            13.95883004      10.62474693      14.09492991       3.41076628       1.32416672       2.49428014      -1.99082788
 Cu            10.10772722       9.12090336       7.33931490      -1.57446338      -1.44825942       1.30997089      -2.08094139
 Cu             8.25512909      13.14339005       6.60694622      -0.95849308       3.31810410      -1.29989709      -1.88955127
 Cu            11.19506971       9.06534270      15.13601290      -1.00729139      -1.73958861       1.08163291      -2.03503319
 Cu            15.51387387      10.71025532       8.83472333       1.66081163      -0.15553502      -0.26902624      -2.23060827
 Cu            15.49008285       9.29205288      10.88856356       0.48654625       2.90076112       0.17012634      -2.31396765
 Cu            11.53240977       6.00000000       9.58767221      -0.30542197       0.05813398      -2.56289020      -2.16686098
 Cu            12.07962559      13.78971581       7.90505135       1.07822125      -0.62872148       1.90126144      -2.53872759
 Cu            10.88318841      10.16359394      11.24812041      -0.88534083      -2.22332252       1.36712722      -2.81194303
 Cu            13.99762885      12.94950250      13.56925214      -0.34949913      -0.44067855      -0.32194677      -2.41087462
 Cu             8.13510668       9.53476261       6.50244250      -1.57676242      -1.04140265      -1.10060563      -2.33522501
