      50
 Properties=species:S:1:pos:R:3:forces:R:3:local_energy:R:1 Lattice="21.7427504822       0.0000000000    0.0000000000    0.0000000000   21.2260710997    0.0000000000    0.0000000000    0.0000000000   21.2755539821" energy=-116.477971 virial="38.76752910          -5.65468808     -6.12201874     -5.65468808     23.15233167    -12.00069490     -6.12201874    -12.00069490     13.72168950" stress="-0.00394824           0.00057590      0.00062349      0.00057590     -0.00235792      0.00122220      0.00062349      0.00122220     -0.00139747" volume=9818.948312
 Cu            10.45387819       9.16722869       8.23447988      -0.69834155       0.18586217      -0.10033212      -2.95052445
 Cu            13.91799074      14.21609639      12.19198365       3.28304721       1.43384795       0.40456222      -2.25117356
 Cu            11.41165072      10.06160277      13.06500756      -1.22038161       4.62736584      -2.21552506      -2.61612223
 Cu             7.77331142      13.86975311      12.29447529      -0.09520410      -0.53909203       0.46159991      -2.51806095
 Cu            12.34816751      13.05663783       7.11532956      -1.79683017       1.10499941      -1.62383054      -2.26547930
 Cu            12.90760771      12.37995364      12.60133123       1.26549110      -3.40531014       1.69881052      -2.71576907
 Cu             9.33214943      12.19608927      14.24511095      -0.30358005      -3.52727748      -1.66800872      -2.56564634
 Cu            13.05086151       8.65688597      12.87757024       5.52015940       1.12420461      -2.38130701      -2.31783665
 Cu            10.78584253      15.22607110       9.93671601      -0.50807719       0.83648527      -1.38998276      -2.38794651
 Cu            14.60956810      10.25667216      11.59046903      -1.07833096       1.07394610       0.69405833      -2.70566746
 Cu            12.15549005      13.89801859      11.02027291       1.60201619       0.89832157      -3.48121062      -1.86972784
 Cu            11.39826696       9.05103403      10.62673209       0.61162867      -3.05905788       1.76301463      -3.36205684
 Cu             8.07206959       9.88902812      12.81858098       1.93522087      -0.20744011       0.92946098      -2.79640901
 Cu             6.00000000      11.84085518      11.19237729      -1.72212637      -0.30178305       1.46211012      -1.82943564
 Cu            12.48259604      10.49565871       6.00000000      -2.57713590       1.21386958      -0.56264772      -2.45403355
 Cu             8.50888873      13.34763963       8.63555323      -0.32999940      -1.54469129      -1.35668204      -2.14091511
 Cu            10.46595888      10.81045441       9.86082721      -0.55486109       3.98503030       0.27463394      -2.69717016
 Cu            14.17609783       6.86945489       9.55803269      -1.13700768      -0.37364555      -1.07436197      -2.38424348
 Cu            11.39472022       6.00000000      10.62052452       2.86754382      -1.04445157       0.99671479      -1.89042975
 Cu            11.09448643      10.89200711      15.05939755      -0.05530075       0.14127035       1.71760793      -2.38380895
 Cu            14.14512965      12.90129822       9.71232758       0.11450236      -1.45928669       0.66629876      -2.78498432
 Cu             8.35294324      10.40054522       9.28525644       0.40966155       0.00700291      -0.68715112      -2.70601608
 Cu            15.74275048       9.54543630       9.72979436      -0.83571732      -0.09330271      -1.03127687      -2.15573316
 Cu             9.07867037       9.57661629       6.36359054       0.45475613       0.50831731       0.39277396      -2.07407245
 Cu             9.83713485      12.21314839       6.15574505       0.52166035      -0.31414914       1.10364765      -2.32011834
 Cu             6.89983160       9.96611793      10.98078427      -0.36637694      -2.12930379      -1.91074176      -2.01467662
 Cu             8.09487675       7.17240818       9.69105930      -0.55765580       1.69836849      -0.60842793      -2.03068949
 Cu             9.92958417      14.39972276      11.82836601      -1.65926902       3.54609154       0.67563905      -2.20406054
 Cu            11.62289271       7.76989424       6.77345118      -0.32839431       1.43086815      -4.05261259      -2.09806140
 Cu            12.22483653       7.89980697      14.70155948       0.87307399      -0.55506152       4.33075887      -2.08453753
 Cu             8.49257389       6.72471596      12.92683652      -1.43707671       1.16657680       3.39245948      -1.84120356
 Cu            14.06574390       9.89118227       7.24839730       2.57853572      -0.97099684       1.53261961      -2.22469643
 Cu             6.35142516      10.89657865       8.47847998      -0.19302201       0.69867371       0.58135375      -2.00074734
 Cu            14.69588943      11.29610983      14.17900606      -1.07427578      -0.01293984      -1.09915748      -1.96379106
 Cu            10.55589438      13.58228520       8.18504148       1.28918012      -0.03239470       1.06266300      -2.35284873
 Cu             8.93539780       9.00005344      15.27555398       0.94279716      -0.00012312      -1.11611300      -2.09886084
 Cu             9.51679284       6.58955390      11.20173787       0.88939953       0.65397284      -1.47132628      -2.10083068
 Cu            12.63993726      12.88899383      15.06725307      -0.30563926      -0.18525846      -1.17597733      -2.24807488
 Cu            11.05199844       8.01980397      13.03739222      -6.49340057      -4.64877967      -3.20840811      -1.90456130
 Cu            12.01137166      15.19957657      12.83337905      -0.90761077       0.66849602       0.88399517      -2.65991833
 Cu            12.76734240      10.59269511       9.42655685       1.25404681       2.00903841       0.04570459      -3.36246578
 Cu            15.16623572       7.92548099      11.16096839       0.25906701       0.70710802       1.59319010      -2.12397405
 Cu            10.84798004      12.59220317      11.87919171      -2.77314558      -6.96407462       1.75978470      -2.63611202
 Cu            12.95983167      14.56501465       8.90201196      -0.90512492       0.61523267      -0.43491469      -2.40858087
 Cu            11.41074143       6.86595242       8.61906063      -0.98381657      -2.18544706       2.11558383      -2.29902940
 Cu             9.68328086      14.18352336      14.37245795       0.89359014       3.53417435      -0.45370317      -2.03869338
 Cu             7.03382206      13.27699245      10.12340159      -0.95808773       1.40834883       0.56736565      -2.14698475
 Cu            12.77280992       8.55656384       8.52446377       1.59276694      -0.31240617       0.28256805      -2.46410383
 Cu            14.11260644      12.10337060       7.34940370       3.20600058      -1.61736133       1.03039504      -2.03875133
 Cu             7.62992697      10.83606175      14.81674078      -0.50835554       0.20616160       0.68432426      -1.98833583
