      50
 Properties=species:S:1:pos:R:3:forces:R:3:local_energy:R:1 Lattice="22.0614850336       0.0000000000    0.0000000000    0.0000000000   21.0688847078    0.0000000000    0.0000000000    0.0000000000   21.4320922981" energy=-177.072162 virial="-11.35010763         -4.13008785      1.26350849     -4.13008785    -27.67124208      7.13289113      1.26350849      7.13289113     13.83931098" stress="0.00113936            0.00041459     -0.00012683      0.00041459      0.00277772     -0.00071602     -0.00012683     -0.00071602     -0.00138923" volume=9961.869781
 Cu             8.06572281      11.26804879       6.52814554       0.24951450      -0.68254270       0.88522821      -2.38804218
 Cu             9.97975750      11.80210332      12.97202593       1.11407167       2.26999826      -2.26266199      -3.33985998
 Cu            11.76637204       9.69946008      15.43209230       0.52277203       0.56462697      -0.17306226      -2.37682803
 Cu            13.88999166      11.90087829      12.72600696       0.30996975      -1.79689917      -2.48185309      -2.38899390
 Cu            10.50048708       8.85630038      10.64645590       3.82202102      -3.61129891      -0.89990679      -3.06239755
 Ni             8.72405494       6.32486895      11.49004145       1.79692608      -3.61707371      -1.65087646      -3.37439221
 Ni             6.90129876      10.18094703       8.69797721       1.03102064       0.36273402      -0.38984059      -3.76669891
 Ni            11.99012374      12.45517463      10.66990141       1.39233712      -1.73521231      -0.68413835      -4.80861955
 Ni            13.51871044       7.34744352       9.20694725      -0.53198290       1.11140639       0.02461325      -3.60337560
 Ni            13.05341882      12.68573794      14.41407384      -1.77682282       0.95407178       1.64354155      -3.03485335
 Ni            11.10344665       7.08973606      12.83645515      -1.94750658       1.15499994      -2.41677619      -4.24096709
 Ni            13.98297862      10.10213748       9.28378864      -1.05809734      -0.06726393      -0.87168502      -3.86442761
 Ni            12.68952595      14.80223069      11.52420462      -2.33577981       0.87284442       2.02920671      -3.66750360
 Ni            12.69261176       9.42417176      11.00337749       1.06733240      -0.90436819      -3.59298567      -4.04047521
 Ni             8.88628936      11.24436659      14.72350714      -0.07953103      -0.66567970       1.82560396      -3.34485138
 Ni             7.53586579      12.81335149       9.28304045      -1.68097647       0.42085128      -3.59405714      -3.58329121
 Ni            10.40105098      10.21115302       6.00000000       0.09936787       0.10439931       1.68373142      -3.45045465
 Ni             8.15646555       8.56854248       7.11057890       0.59176658       1.36639488       0.90852311      -3.04411386
 Ni            12.32766865      13.43584212       8.46242035       2.48977689      -3.01074217      -2.34796498      -3.95001303
 Ni            11.27706450       8.28877338       7.30531631      -0.57182103       1.63428336       0.57730687      -3.26584231
 Ni             8.57039754       7.35509400      13.27659661       0.61993824       0.22838509       5.73558225      -3.52636482
 Ni            11.70547654      15.06888471       9.54297500      -1.47563240       1.96001524       1.03525885      -3.62948465
 Ni            10.26973445      13.00301908       8.60100424      -1.33487504      -0.03255772       3.79682358      -4.20912314
 Ni            14.67309727       8.02631068      13.38957849      -2.09184861       0.42541054      -0.81224188      -2.65320467
 Ni            13.92762886      14.37238997       9.87628100       0.16381121      -0.40774904      -2.60387155      -3.65339748
 Ni             7.30061877       7.28920692      10.14554378      -1.67977340       0.58421133      -2.28800872      -3.55734477
 Ni            16.00232168      10.81399712      12.39154273      -0.24181745      -0.10119849      -0.41832526      -2.75945858
 Ni             9.85566830       8.76265920      14.83317291      -0.52152696      -0.18530758      -1.66108500      -3.82263214
 Ni             6.00000000       9.67990909      10.67459291       0.90585046      -0.73720907       0.13501199      -3.63311800
 Ni            16.06148503      10.62526750       9.38861906       0.01759993       0.44221648       0.00845017      -3.21896696
 Ni            12.87977091      12.06018369       6.21448672      -0.88628319      -0.29931213       1.65024990      -2.74258852
 Ni             7.16878866      10.11918845      13.90153772       0.13892408      -1.84997115       2.40279268      -3.47373544
 Ni             6.71192068      12.79226997      11.30931214      -1.15681868      -0.69176713       0.50313384      -3.52469905
 Ni             8.35898811       8.40033310      11.58351955      -1.11231933       4.28044844      -2.48542929      -3.62920339
 Ni            14.78532347      12.68317841       8.64969362      -0.52114712      -1.10613632      -0.26867893      -3.80084184
 Ni            14.59116727      13.93725852      11.85915372       2.60104994      -1.23114772       1.75069494      -3.24761007
 Ni             8.63201471      13.65641791      11.90411450      -1.02045689       1.80603991       2.44641734      -3.59620551
 Ni            11.74380842       6.00000000       9.82921072      -0.21761368       0.90794088       0.23816299      -3.26013182
 Ni            12.35601420       7.35662141      14.47655270       1.69671928       1.19251757       0.64778577      -3.30513773
 Ni            10.64904354      13.94726491      11.34430525      -0.23546154       0.52145113       0.25643210      -4.28427214
 Ni            14.63687919       9.49053157       7.15582169      -0.21087251       0.74241968       1.26358624      -2.87015032
 Ni             8.92105426      12.11092495      10.56177278       3.84263111      -3.72691893       0.71244248      -4.02990344
 Ni            13.09235405       6.81506283      11.39611891      -0.00228459       1.00497090       1.09561784      -3.84797684
 Ni             9.83704398       9.68420566      12.45804087       0.08627333       0.40030367       3.67070527      -4.26304700
 Ni            11.01155247      13.90811397      14.18825913       0.24847927      -0.67590423      -1.21490332      -3.22150567
 Ni            12.26903462       9.95917621      12.91272249      -0.97847566      -0.08550355       4.00680514      -4.17575526
 Ni             9.88688920      12.76026530       6.60523413       0.72665506      -1.25792613      -2.69756223      -3.15943516
 Ni            11.15524310      10.44915318       8.64150135       0.13165083       0.02612257      -0.05687547      -4.63563395
 Ni             9.02917510       9.88482534       9.64748314      -3.35118070       1.60134846      -1.79330750      -4.43598430
 Ni             7.56743252      10.61287378      11.98656656       1.35444641       1.53927752      -3.26761071      -4.30924859
