      50
 Properties=species:S:1:pos:R:3:forces:R:3:local_energy:R:1 Lattice="21.1122815118       0.0000000000    0.0000000000    0.0000000000   21.5600766125    0.0000000000    0.0000000000    0.0000000000   21.6495715759" energy=-181.523996 virial="-29.98437725         -4.58743265      7.15096627     -4.58743265    -15.89886683     -8.72448625      7.15096627     -8.72448625    -16.61659861" stress="0.00304271            0.00046552     -0.00072565      0.00046552      0.00161336      0.00088533     -0.00072565      0.00088533      0.00168619" volume=9854.504097
 Cu            10.88119690      13.51902322       9.58843538      -0.60027465      -3.89296051       3.23345176      -2.78163933
 Cu            11.32316198       7.87802019      14.30152997       0.04604347       0.57088572       0.28009719      -2.50957572
 Cu             8.16503703       6.00000000      11.78261779       0.42361167       0.50320453      -0.00014199      -2.35549826
 Cu             6.47351334      10.78518229       8.26000844       0.20221521       0.80716596      -1.39352294      -2.58443799
 Cu             9.35242360      10.99392895      13.86255483      -0.13405873      -3.26436113       0.35965196      -3.09089938
 Ni            11.89427259      13.51692550      12.06048291      -1.83535181       0.36461513      -0.38239673      -4.23890259
 Ni            11.59593815      10.35818653      14.89764046       0.01545746      -1.88003148       0.36851317      -3.66511546
 Ni            15.11228151      10.14768203      10.70010960      -1.36887527       0.43525533      -0.07184016      -3.70426482
 Ni            11.15910341       9.31182715       8.32455962       0.88670554      -0.88203415       0.23211478      -4.65642687
 Ni            10.82487657      10.75073964      11.51210570       0.11885127       0.79385670      -0.07629231      -4.60926869
 Ni            13.00579078      12.76681712      10.11456321      -1.12134672      -0.63332172      -2.79939024      -3.71874477
 Ni            14.36507991       8.05658457      11.50021711       0.47767430      -0.88599165      -0.25922703      -3.48007990
 Ni             9.45067736       7.71201284      10.79223488      -1.30891194       0.86126940       0.39106909      -4.45273790
 Ni             6.15406445       8.02246653      11.86558360       1.63406977       0.82064766      -0.28827181      -3.40908083
 Ni             9.00514229      11.68332728      10.12466285       0.37371944       0.76253856      -0.45356702      -4.59191988
 Ni            10.08449471      12.93878961      15.25313495       0.39022238      -0.32927820       2.40408068      -3.30782738
 Ni             9.03322374       9.64443659       8.97255784      -0.44022646      -0.66071945      -0.89629084      -4.77168383
 Ni            13.52565909       7.58574410       9.23366076      -1.25535711       1.28216533       0.32191389      -3.88603849
 Ni             9.87077399       7.49364821       7.34371388      -2.35515041      -1.00174718      -1.01373633      -3.56505458
 Ni             9.63712265      12.92394883      13.24009229      -0.02038041       2.65879532      -3.95422572      -3.49192847
 Ni            11.08146085      12.13777978       6.00000000      -1.12634219      -0.19156341       1.18193470      -2.69853980
 Ni            11.24450268       6.04814788      13.02269969      -0.66816002       0.21435799      -1.08442165      -3.00831247
 Ni             7.11944633      12.01152180      13.44918754       2.11216940       1.58459127       3.18407091      -3.38561646
 Ni            13.02618493      10.69963232       8.83017237      -1.03112834      -1.55870075       0.43617855      -4.13699077
 Ni            11.92826746       7.49950904      11.30560376      -0.00710575       0.38138199      -0.07465055      -4.43176473
 Ni            13.94733605      10.19833363      13.92147158      -1.29827131       0.38741962      -0.53971664      -3.37418456
 Ni            11.72008627      12.19005860      13.94109042       1.08291099       1.13923240      -2.22599197      -3.97835804
 Ni             8.46403109       9.93472021      15.64957158       0.02629583      -0.65827667      -0.62628331      -2.81053410
 Ni            10.59272644      15.56007661      10.43619552      -1.04738773      -0.16001428       0.34915069      -3.30274115
 Ni            14.86068774      11.67470503       8.92929544       1.12330727       1.08138638       0.56682148      -3.23340394
 Ni            10.52946221       6.81000624       9.15637787       1.52565310      -0.90457015       2.24666303      -3.99780388
 Ni             7.20438582      10.18154788      10.18980226      -0.29733339      -0.25931947       2.69222851      -4.08618533
 Ni             7.10600813      10.15685800      12.54626554       0.31551019      -2.59889504      -0.94226675      -4.02773981
 Ni             6.00000000      12.42969594      11.80819991      -0.62748195       0.02392514      -3.16055494      -3.12679759
 Ni             8.19381327       7.75723639      13.53904490      -0.28339491       0.86528334      -0.65624864      -3.80671280
 Ni             7.51229225       8.95402204       6.98585604      -0.64522194      -0.51301335       1.08926232      -3.65834481
 Ni             6.80158916       8.31507202       9.05325825      -0.32055546       1.22430048       1.10322031      -3.83943145
 Ni             9.06216704      11.71391672       7.23516393       0.49150086      -0.31821697       0.53628548      -4.13903430
 Ni             6.82354478      13.76358322       9.25592495       1.33824556      -0.70011218       0.72985132      -3.36016453
 Ni             9.02225717      14.24528411       8.41335783      -0.31687386      -0.25279667       0.84687412      -3.67954321
 Ni             8.48771074      14.38339255      10.89516657       0.24166201      -0.97305443      -1.43545517      -4.03662480
 Ni            13.02921455       9.68136901      11.86487751      -1.32304707       1.60858443      -0.06159166      -4.30299211
 Ni            13.25379488       9.13832523       7.05022122      -0.48258230      -0.23575830       1.12837956      -3.57336193
 Ni            12.00130350       7.08300578       7.46909564       1.43711168       0.34022275      -0.20698398      -3.64066118
 Ni            11.47618016      14.70836154       8.03579983      -0.04372243       1.53615692      -2.19534264      -2.75821138
 Ni             7.92636528       6.63987422       8.46426479       1.54382206      -0.49347028      -0.09572070      -3.69086918
 Ni            10.00801623       8.89149713      12.70855470       0.40038171       0.35697480      -0.09063879      -4.22690828
 Ni             9.57324515       9.35160919       6.53149739       1.45606469       3.83839305      -1.25623964      -3.59322676
 Ni            13.90031053      12.63754327      11.92237664       1.85534807      -2.13514809       2.77008253      -3.43139576
 Ni             8.99973572      14.93637136      12.92477243       0.43998825       0.94074531      -0.21088585      -3.31641542
