      50
 Properties=species:S:1:pos:R:3:forces:R:3:local_energy:R:1 Lattice="21.5370345137       0.0000000000    0.0000000000    0.0000000000   21.5560884539    0.0000000000    0.0000000000    0.0000000000   21.7106788097" energy=-173.076261 virial="-18.35297102         -3.45770141     -6.38110235     -3.45770141    -19.81712609     -3.02084331     -6.38110235     -3.02084331    -22.50949691" stress="0.00182086            0.00034305      0.00063309      0.00034305      0.00196613      0.00029971      0.00063309      0.00029971      0.00223325" volume=10079.274278
 Cu             8.85507917       8.01926647       8.52561951      -0.24246977      -0.30429415       1.16283337      -2.74546223
 Cu            14.20929538      12.89387282       8.34114771      -0.90174523       0.51762080       0.60982445      -2.54628728
 Cu            10.02048239      13.71458497       9.08151352       0.33190838       0.57244095       0.21105321      -3.07277261
 Cu            14.83431505      10.22105621      13.87582358      -0.91114688      -1.18535646       0.96608837      -1.87598137
 Cu             6.91771808      12.64414893       8.97507562       0.71437499       0.74907208      -0.27173115      -2.34833847
 Cu             9.80950714       6.69427935      13.84341200       1.92454008      -0.87731073       0.27545639      -2.58056072
 Cu            11.14765727       7.26623439      10.38029821      -0.67007141      -0.46446412      -3.05251515      -2.95736638
 Cu             9.80158640      10.08156575       7.89496656       1.51806100       0.80996270       1.33330107      -2.87931322
 Cu             6.80763235       8.72035512      10.65754496       0.26048019      -1.71170840       0.15323499      -2.58103815
 Cu            11.86348415      11.38906351      11.12188324       0.17906147      -0.49161040       1.14111526      -3.41231087
 Ni            12.08759416       8.55171179       8.42976858      -0.89767804      -0.87637728       0.56693108      -4.26690008
 Ni             8.54475365       9.20292404       6.47722301      -0.40087656      -0.61503543      -1.50668355      -2.95788797
 Ni             9.86498074      11.50482519       9.63829488      -0.45420945       0.18293395       0.80677601      -4.17455338
 Ni            15.53703451      11.96831457      10.31398061      -0.94365113      -0.25028885      -2.86025547      -3.60533793
 Ni             9.62333099       9.00931251      14.37518551      -3.35856642       1.42824706      -0.95086963      -3.71191245
 Ni            10.18982627      11.46565892      15.71067881       0.40190132      -0.23601455      -1.56289501      -3.55754303
 Ni            15.16961965      11.65823014      12.32660032      -0.83287768       0.34318407       0.43219951      -3.18038455
 Ni            11.33613007      14.74944882      12.48888691       0.60926267       1.86860330      -0.34156778      -3.79083679
 Ni             8.77209590       6.00000000      11.21881901       0.42985950       0.99392856       0.62690937      -2.98360098
 Ni            13.70203913       8.01973901      11.12301243      -1.33424563      -0.98816354       0.19260974      -3.93681737
 Ni            11.58258040       8.59327170      14.40983931       3.36226145      -0.34868412      -0.98867994      -3.52963607
 Ni             8.05930349      10.91270028      12.70797143       0.51415940       3.29647761       1.02787220      -4.28667315
 Ni            12.69506349      13.44268225      10.49786533      -0.17080530       0.74377250      -0.08692978      -4.54057001
 Ni            15.19483127       9.33268975      10.19444004       1.41460445       1.10668608      -0.08890380      -3.52115211
 Ni             7.24205044      10.71892151      10.01630182       1.54994908       1.55833723       0.83805699      -3.77086309
 Ni            13.36538311       6.29479312       9.43544936      -1.08323093       1.58744191       0.25040850      -3.07095976
 Ni            11.25753096      15.55608845      10.33267324      -0.03602275      -1.22120832       0.04329786      -3.35431438
 Ni            10.98918305      10.76576032      13.37818942      -0.65267587       0.14786698       0.22363934      -4.69040775
 Ni            12.39118291      12.59583055      14.89137964      -0.54151174      -1.30349706       0.69032671      -3.62167804
 Ni             8.66429226      14.10164585      12.29744106      -2.59524827       0.45296718       1.75311302      -3.79943323
 Ni            13.11565578       9.79478616       9.95258464      -1.09492387       1.19496838      -1.01403077      -4.07500718
 Ni            13.83372853       8.65046145       7.09611551      -0.12659814       0.95904687       0.43805771      -3.33143957
 Ni            10.77355134       9.10385685      11.48772897       2.68861708       1.10623021       0.72979949      -4.34600785
 Ni            11.73822689      11.51493503       7.79374688      -0.02970225       0.26001059       0.57625354      -4.40416716
 Ni            11.67545334       6.80839900      12.39173774       0.61280186       0.69814415       1.79559930      -3.37528259
 Ni            14.72665382      10.88834838       7.56728165      -0.66140976      -1.61225403       1.23144773      -3.12012036
 Ni            14.67206903      13.80490104      11.79701641       1.24600490       0.54354627      -1.55285336      -3.41396754
 Ni             8.02060557       7.63366219      13.24406607      -3.02254185      -1.56961750       0.35284147      -3.11520925
 Ni            12.07667699      13.82540587       7.19745144      -0.58600828      -1.20628911       0.80878099      -3.16200760
 Ni            11.06782939       8.67079711       6.43342533      -0.19712927       0.07184046       0.62482563      -3.75660405
 Ni             6.55148441      12.95763855      11.32153131       0.97314136      -1.37503636       0.13322928      -3.44211079
 Ni            13.15118087      13.74752270      13.23116550      -0.65167803      -1.10785952      -0.09761323      -3.78537638
 Ni             8.61110972      12.80879469      14.66458088      -0.52014696      -0.58557550      -0.68855698      -3.55042767
 Ni            10.26111096      13.26775618      11.40682714       2.01690948      -2.65698007      -3.31213713      -3.88937705
 Ni             6.00000000      10.54295326      12.07135509      -0.04960468       0.51208451      -0.54006046      -3.49442276
 Ni             8.76126153       9.09698499      12.04632702       0.35950033       0.29027055      -2.81876968      -3.76101995
 Ni             9.69316643      11.72939455       6.00000000       1.53925716      -1.71076441      -1.38536280      -3.23568389
 Ni            10.54413480       6.45648246       8.15109112       0.92172570       1.04700337       0.09737905      -3.16204067
 Ni            10.56212766      13.12774970      13.70029961       0.10191543      -0.62365522       0.61372238      -4.30391843
 Ni             8.70428891      12.86186547       7.40819051      -0.70352109       0.27935679       2.41343169      -3.00117644
