      50
 Properties=species:S:1:pos:R:3:forces:R:3:local_energy:R:1 Lattice="21.1692350033       0.0000000000    0.0000000000    0.0000000000   21.8267589174    0.0000000000    0.0000000000    0.0000000000   21.3040097405" energy=-174.704952 virial="-3.42472166           5.50212694     -2.76816241      5.50212694     -2.88874382      4.20247676     -2.76816241      4.20247676     -8.02412102" stress="0.00034791           -0.00055895      0.00028121     -0.00055895      0.00029346     -0.00042692      0.00028121     -0.00042692      0.00081516" volume=9843.641027
 Cu            11.06976855      13.09285030      14.43173909       0.49411477       0.16112546       0.28486203      -2.45799187
 Cu             7.83521642      14.75480834      10.68278914       1.39505819       0.17189111      -0.54088803      -2.01613711
 Cu            10.66157446      13.63600649       9.82882507      -0.61952537       0.08892034       0.24149016      -3.45689105
 Cu             8.13691920      10.51803481      10.59364579      -1.85128766       0.61047751       3.18739486      -3.28654924
 Cu            14.29213058      10.77196590      13.43861421       1.66719157      -2.37392238      -1.97465107      -2.29076768
 Cu             9.91698270       7.68820600       7.90857141       0.42471399      -0.49767224       0.80760842      -2.63291248
 Cu            14.26699652      12.81489759       7.57880984       1.41232715      -1.12041882      -3.36850412      -2.34449385
 Cu            14.98158719      10.21051148      10.56562705       0.66219083      -0.13058719       1.54955247      -2.88723560
 Cu            11.90640366      15.01971411      12.48029357      -0.03890764      -1.61908794       1.07785301      -2.58234429
 Cu             6.85108086      13.09567531      11.76307953       0.12003815      -2.03528942       0.03711630      -2.22223878
 Ni            11.64345055      12.32458371      11.45774640       0.59034853      -0.12917751       0.38201983      -4.65970494
 Ni             9.39148036      11.16920729       6.00000000       0.22517907       1.23984012       0.43849842      -3.54602241
 Ni            10.42149265      10.49398716       9.76698038       2.16147314       2.92197604      -0.64210417      -4.69577639
 Ni             8.99901662       8.95065192      12.41297511       0.81798879       0.02708799      -0.86408844      -4.32968441
 Ni             8.12272200       9.65131387       7.12004014       0.37992442       0.00495224       1.43384555      -3.83150372
 Ni            14.05789804       8.23011486      12.31234082       2.20926066       3.75707851       3.36803960      -3.77109683
 Ni             7.95586401      10.84367514      12.99144930       0.57600370       0.85875589       0.53721025      -3.94463773
 Ni             8.11026623      12.11881577       9.17724356       3.26109441       1.13733198      -0.34896019      -3.97798042
 Ni             6.94905650       8.31829628      10.94462093       0.59407197       1.07747230       0.09054128      -3.72770760
 Ni            12.01493043       8.01294450      13.22256957       0.13794634       2.06160344       0.63488939      -4.15090210
 Ni            12.78698003       7.27350363       8.98340701      -0.23170740       0.20068679      -1.56852134      -4.01605662
 Ni             8.27650445       7.47226367      13.85453524       0.65838224      -0.16693319       0.04816990      -2.92123386
 Ni            10.91603966       7.47646293      10.42192030      -0.27874488       1.22360923      -0.95871486      -4.24080176
 Ni            13.83087254      13.91321552      11.47019079      -1.04096252      -0.13137842       0.43826011      -3.72486316
 Ni            12.79397958       9.69181016       7.81700741      -0.91155760      -0.52659718       0.28108981      -4.12933643
 Ni            13.00049574       9.94908406      14.98747790      -1.68647239      -0.22851806      -0.21971709      -2.90786645
 Ni            11.64358186      12.25677436       6.04990225       0.12092696      -1.85249138      -1.20834408      -3.55496429
 Ni            12.91020929       7.05035788      11.17250822      -3.05853424      -4.09972207       0.19100570      -3.64554628
 Ni             6.00000000       9.99655961      12.38311902       0.76643416      -0.02331723      -0.96536190      -3.34811621
 Ni             9.74465278      13.56477541      12.60792258       0.16758148      -0.74840015      -1.35624287      -3.99128215
 Ni             9.48441504       6.00000000      10.81094555      -1.20505231      -0.24672749       0.36637662      -3.33370960
 Ni            11.32103241      13.58644400       7.62879920       2.52052907       2.71781527       0.64904296      -3.30191221
 Ni             9.37276983      14.03463597       7.75163000      -1.05699518       1.93074219       1.50373370      -3.21649346
 Ni            14.87629864      10.30541382       8.28269754      -0.47826025       0.57927419       0.24470797      -3.40909911
 Ni             7.75107725      12.91718896       7.24105291      -2.95751563      -1.72707891      -2.21532041      -3.28973391
 Ni            11.30275928       9.38961368      11.44038275      -0.07445065       0.69970566       1.33142836      -4.59341491
 Ni             9.79643085       9.96641486      15.30400974       0.33733921       0.30883316      -2.09331377      -2.83564721
 Ni            13.36509556      13.14012909       9.35164307      -1.46456442       2.43699393       4.44274414      -3.73284029
 Ni             9.08784693       8.89968901       9.67324764      -1.04044265      -4.39535979      -0.93408835      -3.93758955
 Ni            10.88100379       6.29335404      12.70609385      -1.22192281      -0.24769040      -0.86446809      -3.56417654
 Ni             6.06922923      11.98502309       9.42540463      -1.86756775       0.49074439       0.67235983      -3.61604535
 Ni            13.24413222      12.57974853      13.40686128      -2.42999736       2.40681669      -0.64832251      -3.54206537
 Ni            10.39841728       9.20430686       6.37057632       0.34491231       0.90104703       0.19394977      -3.27105319
 Ni            13.15874557       9.06560502      10.25939828      -1.19697102       1.70500407      -1.25914500      -4.20629410
 Ni            15.16923500      12.47542298      10.42708089       0.58138357      -0.42857388      -0.02598185      -3.55822510
 Ni             6.14952962       9.79800666       9.00964634       1.31976957      -0.59833217       0.35623463      -3.51341698
 Ni            10.81014303      11.21430426      13.26619335      -0.33554551      -1.42630750       0.16509438      -4.22374117
 Ni            12.17354996      11.82890359       8.29517146      -0.63465879      -4.53428973       0.09065756      -4.06109988
 Ni            14.86119467       7.61522389      10.36089848       1.98962552      -0.07232171      -1.82482205      -3.55408360
 Ni            11.16931571      15.82675892      10.67648122      -0.25416572      -0.35959079      -1.16421679      -2.65166514
