      50
 Properties=species:S:1:pos:R:3:forces:R:3:local_energy:R:1 Lattice="20.9796159101       0.0000000000    0.0000000000    0.0000000000   21.4642032681    0.0000000000    0.0000000000    0.0000000000   21.4578116533" energy=-167.697151 virial="-11.83822863          1.39989128      5.52692080      1.39989128    -20.17910416      8.60115638      5.52692080      8.60115638      8.01669278" stress="0.00122515           -0.00014488     -0.00057199     -0.00014488      0.00208835     -0.00089014     -0.00057199     -0.00089014     -0.00082965" volume=9662.683053
 Cu            11.78335026      11.96792482      10.22872582      -2.62051477      -4.74331695      -3.32022292      -2.39919433
 Cu            12.80394408      13.74890625      10.10806457       0.22384619       3.14604035       0.49561171      -2.71166724
 Cu            13.24627748      11.77552939       7.47401666       1.01362800      -1.75067076       1.68884778      -2.89653885
 Cu             7.59575942      10.70037820       9.23741727      -0.36924731      -2.34441456       0.37525350      -2.79697559
 Cu             9.87101406      13.00024136       9.16853345       1.23194894      -2.33021278      -4.40381837      -2.64493824
 Cu            10.24858804      13.19536073      11.15304468       0.19544313       2.53263933       3.65787550      -2.48210582
 Cu             6.17627316       8.39143420       9.82107797       0.56889992       0.67702887      -0.37197319      -2.27506351
 Cu            12.14571710       9.09400554       9.76053531       0.50714759       1.63626880      -1.90299628      -3.01406010
 Cu            12.61302358       7.31952161      10.97000125      -0.09324519       0.77814281       0.04446619      -1.80385895
 Cu             9.62065840       7.57070107       8.95213545       0.07304076       0.32731196       0.11866240      -2.87912624
 Ni            12.15013782      10.35915892      13.52765396       0.03915977      -0.09151503      -3.63742428      -3.91440240
 Ni             7.39280033       8.54598612       7.84957181       0.95611660       1.03939070       0.48810148      -2.99442737
 Ni            14.05197134      10.56639224      10.36714436       1.32570859      -1.70982569      -2.12086454      -3.97336174
 Ni             8.97628005      14.74629161      13.16620966       0.21149594      -0.25139936      -0.93201877      -3.29003565
 Ni            14.67417686      13.78087776      12.00086120       1.01144420      -0.52352527      -1.73622377      -3.32631646
 Ni            13.92795891       9.44555030       7.10322055       1.33815386      -0.36488400       1.65180458      -3.21576587
 Ni             9.65643117      12.16263201       6.35731907       3.10842148       2.60345250      -0.67368655      -3.41420969
 Ni            10.87448592      11.75867456      14.63559873      -0.70628948      -0.04328165       1.26530275      -3.88557785
 Ni            12.19466349      14.65310999       7.95820367       1.01405099       1.35391522       2.09161128      -3.27041468
 Ni            13.16822668      11.74772943      11.77800015       0.53483332       1.71041642       4.31873441      -4.04551298
 Ni            14.97961591      13.37926695       9.74753864       0.48931550      -0.87828900       0.40614883      -3.11016280
 Ni            11.55354140       7.57832630       7.07571685      -0.18610071      -0.06009749       1.66836982      -3.61786324
 Ni             6.65232031      11.67893781      12.88785650       1.86274289       0.36706355      -0.45376805      -3.21747912
 Ni             8.82000531      11.44012510      10.86720664      -0.99483815      -0.03424615       0.10783270      -4.08054047
 Ni             9.48740402       6.45065586      11.86597525       0.88129072       1.24909882      -0.25889872      -3.61386763
 Ni             7.99596633      11.40109186      15.04265379       0.94528951      -0.47331265      -1.95523750      -2.84045728
 Ni             7.28696450      13.79347262      11.51913666       1.31402244      -1.23603478      -0.21847153      -3.87371613
 Ni            14.59781246       8.18769727      11.44154854       0.47515051       1.00703885       0.48894332      -3.22522093
 Ni             8.30577182      14.40133351       9.26354488      -1.69636029       1.21683418       0.92735549      -3.60639121
 Ni             8.98007213       8.93016616      13.16936581       0.27346212       0.42389105      -0.63078069      -4.11268611
 Ni            12.08837384       9.48183137       6.21928653      -1.87989385       1.57912553      -0.54772435      -3.47705224
 Ni            11.12022889       9.65108954      11.68971007      -1.22481085       0.10222611       0.13471957      -4.64408839
 Ni             9.90844876      11.67888156      12.69408696       0.00632741      -1.63022171       1.99494119      -4.20456870
 Ni            12.32371755       7.43890975      12.99408774      -1.44226251       0.72037071       2.59134181      -3.38784378
 Ni            12.97682164      13.85941880      13.17547679      -1.64788577      -0.38191239       0.72071391      -3.45989425
 Ni             8.24588255       8.10215233      10.85637182       2.43368357       0.98744914      -1.98136717      -3.68346975
 Ni            12.05418374      13.23566505       6.53383178      -1.92251659      -1.35227534      -2.86825916      -2.91393009
 Ni            11.30795382       6.00000000      10.15352154      -2.00090613      -1.62745503      -2.43496694      -3.08068343
 Ni            10.43963380      15.46420327       8.89051272      -1.06561861      -0.39749936       1.17582242      -3.78343956
 Ni             9.67117944      15.34048196      11.06974579      -0.98804989      -0.16001608      -0.49173598      -3.61172184
 Ni            13.19600688       7.04425214       8.69078893      -0.78154254       0.76473501      -0.52494838      -3.58485206
 Ni            10.34094080       9.21721995      15.10153964      -3.08508169      -0.11974634      -1.59212624      -3.46022541
 Ni            14.38427330      10.92208648      14.01039849      -1.26256180      -0.21132062      -0.34748383      -3.57756237
 Ni             8.06191541      11.36452064       7.27323994      -1.61490035      -1.16750101       0.71433242      -3.24088469
 Ni             6.00000000      12.32019770       9.97178030       1.34376314       0.24972641       0.89842756      -3.11781676
 Ni             9.81691825      10.05503666       6.00000000      -0.11318955      -1.78289360       0.47993138      -3.62596391
 Ni            11.15802556      10.60088640       8.08656991      -1.14344789      -0.05093907      -0.81439813      -4.52268155
 Ni            12.24584027       9.82474149      15.45781165       2.97585311       0.82548256       4.29779309      -3.12607678
 Ni            13.61750927       8.68074673      14.21495283       1.53796518       0.34189309      -0.56039101      -3.57608177
 Ni             6.67597232       7.94705905      12.15207049      -1.05294147       0.07726468       1.97684124      -3.08637538
