     480
 Properties=species:S:1:pos:R:3:velocities:R:3:forces:R:3:local_energy:R:1:fix_atoms:S:3 Lattice="31.6575874013       0.0000000000    0.0000000000    0.0000000000   31.4396548309    0.0000000000    0.0000000000    0.0000000000   31.8225730859" temperature=0.00000000 pressure=3.02713392 time_step=1.0000 time=76.000000 energy=-2257.246685 energy_soap=-745.77918821  energy_2b=-1076.37724684 energy_3b=0.00000000 energy_core_pot=0.00000000 energy_vdw=0.00000000 energy_exp=0.00000000 energy_xps=0.00000000 virial="0.17556546            0.41570937     -0.09669486      0.41570937      0.12081762     -0.18568638     -0.09669486     -0.18568638     -0.11685459" stress="-0.00000554          -0.00001312      0.00000305     -0.00001312     -0.00000381      0.00000586      0.00000305      0.00000586      0.00000369" volume=31673.122212 step=76
 Cu            16.24744627       6.21533551      12.29544704       0.00000000       0.00000000       0.00000000      -0.00462074      -0.00196513      -0.00005344      -2.92510484 F F F
 Cu             8.67195472      22.82852842      15.34890491       0.00000000       0.00000000       0.00000000       0.00186983      -0.00078232      -0.00269560      -3.22866022 F F F
 Ni            19.20736737       9.13443595      19.84886002       0.00000000       0.00000000       0.00000000       0.00031186      -0.00045043      -0.00018572      -6.26937020 F F F
 Ni            16.06473055      21.03100315      10.85354823       0.00000000       0.00000000       0.00000000       0.00061401      -0.00079042       0.00224445      -6.32142667 F F F
 Cu             7.38175912      19.45640492      20.81359729       0.00000000       0.00000000       0.00000000      -0.00114453       0.00069091       0.00026773      -2.70246659 F F F
 Ni            21.97997833      19.29790079      12.88506779       0.00000000       0.00000000       0.00000000       0.00107895       0.00096459       0.00087147      -5.94613372 F F F
 Ni            15.86068986      22.47932585      21.90780323       0.00000000       0.00000000       0.00000000      -0.00015419      -0.00053736      -0.00146243      -5.76198579 F F F
 Cu            21.54766719      14.59759121      12.25294365       0.00000000       0.00000000       0.00000000      -0.00011475       0.00110209      -0.00052501      -4.03094369 F F F
 Cu             7.33962544      16.21056289      13.40025867       0.00000000       0.00000000       0.00000000      -0.00143566       0.00124157      -0.00112358      -3.27769188 F F F
 Cu            15.09183664      23.10551777       9.83367681       0.00000000       0.00000000       0.00000000       0.00107755       0.00031834       0.00092207      -3.28877379 F F F
 Cu            17.72096017      10.90845732      15.92215257       0.00000000       0.00000000       0.00000000       0.00117910      -0.00033145      -0.00162505      -3.91750057 F F F
 Ni            22.61338920      13.90281096       9.89228574       0.00000000       0.00000000       0.00000000       0.00016820       0.00153125      -0.00114889      -5.61908617 F F F
 Ni            11.80262413      10.39277291       8.90574459       0.00000000       0.00000000       0.00000000       0.00112475      -0.00380006       0.00274485      -5.36526534 F F F
 Cu            21.56992710      11.25040010      22.41603698       0.00000000       0.00000000       0.00000000       0.00108866      -0.00195142      -0.00073176      -2.88497034 F F F
 Cu            12.86711053      17.71823920      15.83181755       0.00000000       0.00000000       0.00000000      -0.00070863      -0.00144484      -0.00050610      -4.09917750 F F F
 Ni            17.44225822      18.86917902      11.36136773       0.00000000       0.00000000       0.00000000       0.00002703      -0.00173059      -0.00002900      -6.29399933 F F F
 Cu            13.78360228       6.33161179      12.58148455       0.00000000       0.00000000       0.00000000      -0.00287938      -0.00689033       0.00111002      -3.08755962 F F F
 Ni            19.14231636      13.18934368      20.00045659       0.00000000       0.00000000       0.00000000       0.00069983       0.00026829       0.00014225      -6.41074911 F F F
 Cu            25.78171868      16.35356558      14.39928974       0.00000000       0.00000000       0.00000000       0.00032933       0.00094983      -0.00050268      -3.09084624 F F F
 Ni            10.94257313      12.67879287       9.80928662       0.00000000       0.00000000       0.00000000       0.00031565      -0.00217434      -0.00173173      -6.09729899 F F F
 Cu            21.89163447       6.92114798      17.14303529       0.00000000       0.00000000       0.00000000      -0.00117030      -0.00041407      -0.00309074      -2.88049101 F F F
 Cu             8.88817556      19.42423540      16.13172648       0.00000000       0.00000000       0.00000000      -0.00093191      -0.00184143      -0.00019252      -3.86351321 F F F
 Cu            24.05090808       9.28861799      14.31569022       0.00000000       0.00000000       0.00000000      -0.00086256      -0.00032489      -0.00253159      -2.90652355 F F F
 Cu            15.53836319      15.24728288      25.88116040       0.00000000       0.00000000       0.00000000      -0.00075367       0.00112036       0.00055740      -2.87432854 F F F
 Ni            17.91316843      12.06189180       9.76318984       0.00000000       0.00000000       0.00000000      -0.00172007       0.00060829       0.00073593      -5.97311364 F F F
 Ni            16.24634632      12.89402927      14.85646327       0.00000000       0.00000000       0.00000000       0.00152417       0.00172029       0.00099877      -6.37513898 F F F
 Ni            12.06234229      20.30697216      11.13016834       0.00000000       0.00000000       0.00000000       0.00054861      -0.00033737      -0.00094623      -6.50127462 F F F
 Cu            14.08454633      15.90627310      11.41482450       0.00000000       0.00000000       0.00000000      -0.00059165       0.00060918      -0.00156799      -3.41722806 F F F
 Ni            18.82484366      24.61767672      14.73038269       0.00000000       0.00000000       0.00000000       0.00048845       0.00039645       0.00074161      -5.90995358 F F F
 Ni             9.38567947      13.65812964      22.47706338       0.00000000       0.00000000       0.00000000      -0.00073153      -0.00008179      -0.00011578      -5.91176894 F F F
 Cu            25.08852114      17.32306826      12.19995863       0.00000000       0.00000000       0.00000000       0.00018922       0.00107774      -0.00019713      -2.92334489 F F F
 Cu             7.83602456      16.88444624      23.91156618       0.00000000       0.00000000       0.00000000      -0.00080843      -0.00012561      -0.00070025      -2.45277216 F F F
 Ni            16.18433601      13.37636261       8.46026656       0.00000000       0.00000000       0.00000000       0.00047560      -0.00099413      -0.00020009      -6.17484461 F F F
 Ni             9.23824379      16.27564234      21.85206053       0.00000000       0.00000000       0.00000000      -0.00119522      -0.00002980      -0.00026822      -6.48261970 F F F
 Cu            11.42136615      13.35489182      24.64600583       0.00000000       0.00000000       0.00000000      -0.00021212       0.00022704       0.00031918      -3.18574655 F F F
 Cu            23.38728044      17.96709936      10.56046406       0.00000000       0.00000000       0.00000000       0.00027073       0.00137189      -0.00080250      -3.33239400 F F F
 Ni            11.82333762      21.29755806      13.33065531       0.00000000       0.00000000       0.00000000       0.00154460       0.00046835      -0.00226336      -6.30306192 F F F
 Ni            14.96508212      21.25839846      23.86517721       0.00000000       0.00000000       0.00000000      -0.00079930       0.00011504      -0.00102292      -5.37967286 F F F
 Ni            17.50092520       8.36656665      12.72042901       0.00000000       0.00000000       0.00000000      -0.00447136       0.00110110       0.00174085      -6.02231763 F F F
 Ni            19.38451191      12.32661783      17.69719927       0.00000000       0.00000000       0.00000000       0.00100536      -0.00046173       0.00044871      -6.40251993 F F F
 Cu             9.56411499       9.58997492      20.31632363       0.00000000       0.00000000       0.00000000       0.00045899      -0.00057326       0.00010407      -3.10619645 F F F
 Cu            20.99338578      24.56940157      18.65936586       0.00000000       0.00000000       0.00000000       0.00078421      -0.00060817       0.00127260      -2.72485686 F F F
 Cu            15.11043435       8.33867625      12.92836360       0.00000000       0.00000000       0.00000000      -0.00111753      -0.00026726      -0.00161949      -3.57662629 F F F
 Cu             6.33990439      19.52920418      16.61260228       0.00000000       0.00000000       0.00000000      -0.00055319       0.00684463       0.00325274      -2.81131668 F F F
 Cu            15.42966790      17.82871432      12.30026900       0.00000000       0.00000000       0.00000000       0.00041596       0.00038672       0.00061675      -4.13317477 F F F
 Ni             9.79725387      11.18418668      14.43074074       0.00000000       0.00000000       0.00000000       0.00101375       0.00216134       0.00036627      -6.22704772 F F F
 Ni            16.56838494       9.59045685      17.50241570       0.00000000       0.00000000       0.00000000       0.00037912       0.00055308       0.00007178      -6.40717484 F F F
 Ni            19.31872109      15.53539389      20.19857699       0.00000000       0.00000000       0.00000000      -0.00115454       0.00072278      -0.00031339      -6.47154444 F F F
 Ni            12.53543150      15.77164595      19.76172549       0.00000000       0.00000000       0.00000000      -0.00072130       0.00053468       0.00042871      -6.20871799 F F F
 Cu            17.22586144      21.19797389      14.66923974       0.00000000       0.00000000       0.00000000       0.00124866       0.00224543       0.00142934      -4.04529759 F F F
 Ni            14.58625566      12.87498059      16.72079946       0.00000000       0.00000000       0.00000000      -0.00264525       0.00398016       0.00124042      -6.06178939 F F F
 Ni            17.98205471      11.15181854      19.33438381       0.00000000       0.00000000       0.00000000       0.00069979       0.00017670      -0.00029600      -6.29809536 F F F
 Ni            12.67810481      23.61422797      12.85922846       0.00000000       0.00000000       0.00000000      -0.00115247       0.00053197      -0.00251615      -6.04411058 F F F
 Ni            24.50705232      11.75185430      14.28280906       0.00000000       0.00000000       0.00000000      -0.00028388       0.00023321      -0.00099132      -5.44735648 F F F
 Ni            13.76942721      16.75697041      13.72915831       0.00000000       0.00000000       0.00000000      -0.00184352      -0.00114169      -0.00108081      -6.02639818 F F F
 Ni            17.91204957       9.69996509      21.91546912       0.00000000       0.00000000       0.00000000       0.00118752       0.00063725       0.00026068      -5.84252596 F F F
 Ni            12.72634949      17.57752664      23.50965815       0.00000000       0.00000000       0.00000000      -0.00091736       0.00029118       0.00008081      -6.43929993 F F F
 Ni             7.22771225      20.84280036      14.78026079       0.00000000       0.00000000       0.00000000       0.00299628      -0.00277457      -0.00163298      -5.15888065 F F F
 Cu            14.17422768      12.66866411      25.18898388       0.00000000       0.00000000       0.00000000       0.00006336       0.00079634       0.00054340      -3.15335778 F F F
 Ni            12.15292993      15.56206576      15.10277707       0.00000000       0.00000000       0.00000000      -0.00151451       0.00018830      -0.00212845      -6.10377881 F F F
 Ni            17.92939279      21.26112452      17.06258708       0.00000000       0.00000000       0.00000000       0.00141295      -0.00026084       0.00065153      -6.17217049 F F F
 Cu            16.51672541      19.06844950       6.52255628       0.00000000       0.00000000       0.00000000       0.00085103       0.00134354       0.00069785      -3.12395205 F F F
 Ni            14.76732654      15.19807509      19.88696778       0.00000000       0.00000000       0.00000000      -0.00060576       0.00031050       0.00074055      -6.10974405 F F F
 Ni            15.24676632      20.91096035      15.85659971       0.00000000       0.00000000       0.00000000      -0.00147093      -0.00102428      -0.00280994      -6.09162660 F F F
 Ni            18.21097760      14.50223871      18.00140150       0.00000000       0.00000000       0.00000000       0.00020373      -0.00004376       0.00019315      -6.36694591 F F F
 Ni            23.98674932      16.42215773      20.34908393       0.00000000       0.00000000       0.00000000       0.00072136      -0.00091379       0.00018543      -5.79484471 F F F
 Cu            12.69415024       7.12982525      18.77988172       0.00000000       0.00000000       0.00000000       0.00198110      -0.00012060      -0.00020410      -3.22658695 F F F
 Cu            11.84355393      19.43245092      17.32753024       0.00000000       0.00000000       0.00000000       0.00044962      -0.00064959       0.00017152      -3.90237876 F F F
 Ni            15.40100033      15.41115357       9.42436323       0.00000000       0.00000000       0.00000000       0.00021910       0.00024673      -0.00046201      -6.46978734 F F F
 Ni            21.36536945      19.56091590      15.23239075       0.00000000       0.00000000       0.00000000       0.00118137       0.00048576       0.00075101      -6.42561239 F F F
 Ni             8.51170193      13.42849095      13.01205697       0.00000000       0.00000000       0.00000000       0.00089132      -0.00397978      -0.00097334      -5.88924709 F F F
 Ni            17.21810766      18.90541070      13.83510786       0.00000000       0.00000000       0.00000000       0.00011836       0.00101034       0.00133186      -6.08393237 F F F
 Cu            25.90298722      17.15006993      18.90872963       0.00000000       0.00000000       0.00000000       0.00054531      -0.00085691       0.00008883      -2.82887824 F F F
 Cu            13.31293556      14.96921920      24.83240486       0.00000000       0.00000000       0.00000000      -0.00049254       0.00061924       0.00034625      -3.44013274 F F F
 Ni            13.56478324      16.48966197       8.33742772       0.00000000       0.00000000       0.00000000       0.00075213       0.00090632       0.00033210      -6.41838629 F F F
 Ni            14.89274844      16.70886126      24.01627150       0.00000000       0.00000000       0.00000000      -0.00062393       0.00052369       0.00026671      -6.01976682 F F F
 Cu             9.16427983       7.58630132      16.65513246       0.00000000       0.00000000       0.00000000       0.00453264      -0.00129640      -0.00009482      -2.52813235 F F F
 Ni            10.90784983      14.68031599      21.05056985       0.00000000       0.00000000       0.00000000      -0.00087823       0.00030103       0.00030642      -6.27218801 F F F
 Ni            13.38105685      14.70035520      17.80226624       0.00000000       0.00000000       0.00000000       0.00004755      -0.00042191       0.00001764      -6.23847491 F F F
 Cu            25.48753448      14.79866660      12.56263007       0.00000000       0.00000000       0.00000000       0.00032994       0.00126777      -0.00071517      -2.81979971 F F F
 Cu            10.94148818      10.01223877      22.36425638       0.00000000       0.00000000       0.00000000       0.00016044       0.00027066       0.00054375      -3.05680461 F F F
 Cu            24.72836074      18.79071088      20.62058899       0.00000000       0.00000000       0.00000000       0.00031923      -0.00122275       0.00096520      -2.92694040 F F F
 Cu            11.43934057      14.35852703       7.99284363       0.00000000       0.00000000       0.00000000      -0.00029988      -0.00298766      -0.00157823      -3.04895177 F F F
 Cu            21.46206442      13.03974744      20.62038102       0.00000000       0.00000000       0.00000000       0.00070705      -0.00256684      -0.00074746      -3.67221884 F F F
 Ni            20.56883979      14.50926492      18.39874138       0.00000000       0.00000000       0.00000000       0.00076251       0.00013664       0.00060805      -6.46748720 F F F
 Ni            17.33020603      15.41860113       7.93379261       0.00000000       0.00000000       0.00000000       0.00003259       0.00081645      -0.00069008      -5.89840258 F F F
 Ni            18.16965031      21.80950718      21.63138661       0.00000000       0.00000000       0.00000000      -0.00044346      -0.00093375      -0.00088722      -5.83286751 F F F
 Ni             9.77533752      15.53628792      13.82732623       0.00000000       0.00000000       0.00000000      -0.00189343       0.00020373      -0.00164567      -6.51453711 F F F
 Ni            21.27567287       8.83931074      18.39158646       0.00000000       0.00000000       0.00000000       0.00018854      -0.00086293      -0.00166456      -5.79229432 F F F
 Cu            19.92674584       6.33597319      15.72638735       0.00000000       0.00000000       0.00000000      -0.00196279       0.00012276      -0.00120190      -3.02928385 F F F
 Cu             6.86641376      18.43037067      14.53173929       0.00000000       0.00000000       0.00000000      -0.00381782      -0.00352295       0.00984855      -3.22996885 F F F
 Cu            11.25762910       8.63740355      10.46988531       0.00000000       0.00000000       0.00000000       0.00568104      -0.00204834       0.00395419      -3.32216669 F F F
 Ni            18.44073036       7.46173367      21.25868659       0.00000000       0.00000000       0.00000000       0.00075025       0.00030283       0.00008044      -5.34057839 F F F
 Cu            10.46531480      21.09444226       9.30773842       0.00000000       0.00000000       0.00000000       0.00059556       0.00030438      -0.00087528      -3.45793777 F F F
 Cu            11.73637115       7.72671139      16.49555725       0.00000000       0.00000000       0.00000000       0.00167196       0.00142829       0.00052478      -3.69709732 F F F
 Ni            12.79995519      22.63181388      20.13922385       0.00000000       0.00000000       0.00000000      -0.00027376       0.00020349      -0.00013066      -5.91219236 F F F
 Ni            12.58701123      19.10903424      21.41870618       0.00000000       0.00000000       0.00000000      -0.00063234       0.00003129       0.00003213      -6.23373178 F F F
 Cu             6.81720579      15.42987841      17.82138459       0.00000000       0.00000000       0.00000000      -0.00023270      -0.00254783      -0.00105458      -3.37224753 F F F
 Cu            18.63106091      18.95582791      17.65083761       0.00000000       0.00000000       0.00000000       0.00055692      -0.00006786      -0.00027370      -4.00209176 F F F
 Ni            22.74946477      20.48004077      17.03543710       0.00000000       0.00000000       0.00000000       0.00114371      -0.00045377       0.00154081      -6.02330619 F F F
 Ni            23.06337756      12.16054432      16.08385663       0.00000000       0.00000000       0.00000000      -0.00036437       0.00068906      -0.00130012      -6.41769751 F F F
 Cu            18.89584823      22.68266582       8.84088592       0.00000000       0.00000000       0.00000000      -0.00021125      -0.00051753       0.00011261      -2.74011329 F F F
 Ni            11.34928437      12.44335650      22.09646447       0.00000000       0.00000000       0.00000000      -0.00013917       0.00058252       0.00082879      -6.31843913 F F F
 Ni            10.52486761       8.37412415      18.47589845       0.00000000       0.00000000       0.00000000       0.00144247       0.00003910       0.00115890      -5.32208514 F F F
 Cu            13.19591354       9.19250918      22.52880169       0.00000000       0.00000000       0.00000000       0.00061507       0.00082135       0.00064966      -3.19538862 F F F
 Cu            16.83200822      19.97334569      25.01496232       0.00000000       0.00000000       0.00000000      -0.00133727       0.00069737      -0.00090333      -2.96223219 F F F
 Ni            13.15901697       7.55166591      14.51170629       0.00000000       0.00000000       0.00000000      -0.00380719       0.00158111      -0.00184901      -5.89261861 F F F
 Ni            14.81691034       8.23647808      18.57936308       0.00000000       0.00000000       0.00000000       0.00039492       0.00202565       0.00030974      -6.19343219 F F F
 Cu            15.73357428       8.96518382       8.87794932       0.00000000       0.00000000       0.00000000      -0.00053273      -0.00148087       0.00276033      -3.13336985 F F F
 Ni            21.60656281      16.76046574      19.42997929       0.00000000       0.00000000       0.00000000       0.00050922      -0.00178782       0.00078042      -6.47637104 F F F
 Ni            23.77273378      16.58659467      18.00901348       0.00000000       0.00000000       0.00000000       0.00043094      -0.00046588      -0.00012583      -6.30590730 F F F
 Cu             8.19440765      10.85817920      12.48232118       0.00000000       0.00000000       0.00000000       0.00161721      -0.00444828      -0.00064786      -3.12364288 F F F
 Ni            15.46955377       9.93976375      22.13772958       0.00000000       0.00000000       0.00000000       0.00077562       0.00060908       0.00071257      -5.78995162 F F F
 Cu            17.25123123      22.19335836      23.84453823       0.00000000       0.00000000       0.00000000      -0.00032239      -0.00005697      -0.00111785      -2.91733913 F F F
 Cu            14.64280577      14.19182721      13.17010437       0.00000000       0.00000000       0.00000000      -0.00083760       0.00081467      -0.00031444      -3.91212266 F F F
 Ni            13.85613274       9.79197072      10.32432425       0.00000000       0.00000000       0.00000000      -0.00162645       0.00313428       0.00324571      -6.23811509 F F F
 Cu            23.18459308      10.84730580      12.58093550       0.00000000       0.00000000       0.00000000       0.00046878       0.00133243      -0.00155961      -3.43096282 F F F
 Ni             9.97514447      20.56352312      18.38650423       0.00000000       0.00000000       0.00000000       0.00044892      -0.00025365       0.00200648      -6.14890344 F F F
 Cu            12.73058834      10.96748944      16.12711987       0.00000000       0.00000000       0.00000000       0.00196518       0.00172941       0.00138007      -4.55563628 F F F
 Cu             9.31476236      15.07285597      24.39095407       0.00000000       0.00000000       0.00000000      -0.00086202       0.00004276      -0.00022479      -3.03711922 F F F
 Ni            16.33269984      18.20838868      21.01773463       0.00000000       0.00000000       0.00000000      -0.00108881       0.00028461      -0.00042680      -6.25243355 F F F
 Cu            19.11107143       9.84701022      17.55906015       0.00000000       0.00000000       0.00000000       0.00052501      -0.00037274      -0.00052030      -3.93464455 F F F
 Ni            15.39581731      16.94537925      16.35439739       0.00000000       0.00000000       0.00000000       0.00091606      -0.00037473       0.00174990      -6.08327192 F F F
 Ni            10.40921826      14.61680172      16.18102126       0.00000000       0.00000000       0.00000000      -0.00072281       0.00085120      -0.00002424      -6.16415151 F F F
 Ni            18.25714882      17.66680443       7.48979622       0.00000000       0.00000000       0.00000000       0.00091413       0.00114467       0.00059642      -5.94088202 F F F
 Ni            18.20545148      12.00588997      13.77857881       0.00000000       0.00000000       0.00000000       0.00105511       0.00167507       0.00182003      -5.98186730 F F F
 Cu            22.12223028      21.73334199      12.47872544       0.00000000       0.00000000       0.00000000       0.00170402       0.00095400       0.00003233      -3.10326952 F F F
 Ni            14.07874720      17.35702694      20.69060364       0.00000000       0.00000000       0.00000000      -0.00071710       0.00050547       0.00047718      -6.12532812 F F F
 Cu            14.27298825      19.41062244      19.54012088       0.00000000       0.00000000       0.00000000      -0.00092852      -0.00057423      -0.00140806      -4.04504178 F F F
 Ni            19.57529656      11.17457443      21.16259781       0.00000000       0.00000000       0.00000000       0.00077734      -0.00013134       0.00062064      -6.04125739 F F F
 Cu            11.43145781      16.72452122       9.39389862       0.00000000       0.00000000       0.00000000       0.00067433       0.00023464      -0.00113652      -3.57165967 F F F
 Ni            23.49616095      15.98075537      13.30819437       0.00000000       0.00000000       0.00000000       0.00037415       0.00089648      -0.00036932      -5.90629649 F F F
 Ni            12.10441408      18.11315195      19.31890895       0.00000000       0.00000000       0.00000000      -0.00134510       0.00016609       0.00054999      -6.22515152 F F F
 Cu            17.38084373      24.13166288      21.13233612       0.00000000       0.00000000       0.00000000       0.00000432      -0.00069201      -0.00114332      -3.16541601 F F F
 Ni            13.31045495      13.36247729      23.03756769       0.00000000       0.00000000       0.00000000       0.00007652       0.00046498       0.00060087      -6.06812084 F F F
 Ni            20.02109250       7.68259259      13.75571357       0.00000000       0.00000000       0.00000000      -0.00247366      -0.00289283      -0.00210643      -5.55988330 F F F
 Ni            13.81757301      21.21066970      17.93475699       0.00000000       0.00000000       0.00000000      -0.00015394      -0.00030422      -0.00167951      -6.35297031 F F F
 Ni            16.60077498      20.24826446      22.61800486       0.00000000       0.00000000       0.00000000      -0.00048790      -0.00026403      -0.00211326      -6.03529452 F F F
 Ni            19.92380038      16.09621932      13.75340285       0.00000000       0.00000000       0.00000000       0.00019902       0.00081800      -0.00028718      -6.20205820 F F F
 Cu            11.05138259      14.24953375      18.48918810       0.00000000       0.00000000       0.00000000      -0.00115526       0.00058042       0.00002112      -4.57703492 F F F
 Cu            24.46206472      12.54054477      18.50902715       0.00000000       0.00000000       0.00000000       0.00013873      -0.00085384      -0.00113489      -3.32487847 F F F
 Ni            21.67346671      22.05683121      15.41831014       0.00000000       0.00000000       0.00000000       0.00112485       0.00029428       0.00158145      -5.89643893 F F F
 Cu            23.54635916      15.80831378      22.63022114       0.00000000       0.00000000       0.00000000      -0.00144239      -0.00234522      -0.00111870      -2.77488779 F F F
 Cu            16.47915282       9.12872029      20.14015528       0.00000000       0.00000000       0.00000000       0.00105640       0.00002348       0.00013988      -3.93498799 F F F
 Ni            22.76517853      14.72682574      19.20437791       0.00000000       0.00000000       0.00000000       0.00027572      -0.00114404      -0.00043949      -6.20087118 F F F
 Cu             7.35436027      14.92978395      22.65212976       0.00000000       0.00000000       0.00000000      -0.00090760      -0.00022409      -0.00046119      -3.19697376 F F F
 Ni            16.75403512      19.03930256      16.23854025       0.00000000       0.00000000       0.00000000      -0.00000515       0.00061030      -0.00036035      -6.25800879 F F F
 Cu            19.26612816      11.07929845      23.49610538       0.00000000       0.00000000       0.00000000       0.00119078       0.00044304      -0.00025832      -3.04923065 F F F
 Cu            13.77492565       6.39937845      16.66463075       0.00000000       0.00000000       0.00000000      -0.00063857       0.00019596      -0.00238842      -3.05105214 F F F
 Cu            17.84231402       5.73673448      17.03145012       0.00000000       0.00000000       0.00000000      -0.00042081       0.00068138      -0.00073713      -3.16476993 F F F
 Cu            19.62658303       8.78772006      11.58893917       0.00000000       0.00000000       0.00000000      -0.00353337       0.00052024       0.00057875      -3.58841277 F F F
 Cu            10.21997800      17.36229836      23.92644950       0.00000000       0.00000000       0.00000000      -0.00099279       0.00020656      -0.00025988      -3.43676732 F F F
 Cu            12.37711346      14.70656713      10.22411583       0.00000000       0.00000000       0.00000000      -0.00095437      -0.00043734      -0.00180187      -3.95766467 F F F
 Cu            22.71777459      18.60574676       8.18950188       0.00000000       0.00000000       0.00000000      -0.00095544       0.00106589       0.00048299      -2.65782769 F F F
 Ni            13.01457358      24.24056251      10.57441229       0.00000000       0.00000000       0.00000000       0.00065066       0.00104590      -0.00089231      -5.33385444 F F F
 Ni            16.78040386      12.45172316      17.54809888       0.00000000       0.00000000       0.00000000       0.00107314       0.00022629       0.00018131      -6.45277074 F F F