     480
 Properties=species:S:1:pos:R:3:velocities:R:3:forces:R:3:local_energy:R:1:fix_atoms:S:3 Lattice="31.6575874013       0.0000000000    0.0000000000    0.0000000000   31.4396548309    0.0000000000    0.0000000000    0.0000000000   31.8225730859" temperature=0.00000000 pressure=-0.01448314 time_step=1.0000 time=118.000000 energy=-2257.293893 energy_soap=-744.59030786  energy_2b=-1077.61333518 energy_3b=0.00000000 energy_core_pot=0.00000000 energy_vdw=0.00000000 energy_exp=0.00000000 energy_xps=0.00000000 virial="0.24723350            0.09932193     -0.30359384      0.09932193     -0.19874418      0.05388089     -0.30359384      0.05388089     -0.04934827" stress="-0.00000781          -0.00000314      0.00000959     -0.00000314      0.00000627     -0.00000170      0.00000959     -0.00000170      0.00000156" volume=31673.122212 step=118
 Cu            20.85519929      20.37489350      18.16575216       0.00000000       0.00000000       0.00000000      -0.00048658       0.00012652       0.00035197      -4.05234916 F F F
 Cu             8.87546112      11.95631759      16.28936697       0.00000000       0.00000000       0.00000000      -0.00020376       0.00023935       0.00132579      -3.68176115 F F F
 Ni            18.17862746      12.46199755      20.86364770       0.00000000       0.00000000       0.00000000       0.00025008       0.00048868      -0.00047229      -6.29702016 F F F
 Ni            14.44116347       8.40428305      17.53933803       0.00000000       0.00000000       0.00000000       0.00044492      -0.00024094       0.00060796      -6.20348057 F F F
 Cu             7.58148410      21.62441929      16.63114568       0.00000000       0.00000000       0.00000000      -0.00014331       0.00010051      -0.00039857      -3.13856072 F F F
 Ni            12.46248017      24.89646504      12.61115856       0.00000000       0.00000000       0.00000000       0.00034377      -0.00001894       0.00050676      -5.18346618 F F F
 Ni            17.05789190      14.65514445       8.82024419       0.00000000       0.00000000       0.00000000       0.00015306       0.00015880      -0.00023812      -6.22962420 F F F
 Cu            19.18377213      19.78285859      10.52180837       0.00000000       0.00000000       0.00000000       0.00093797       0.00031899      -0.00031095      -3.65177409 F F F
 Cu            13.04543056       7.06412631      11.53154622       0.00000000       0.00000000       0.00000000      -0.00014598       0.00053103      -0.00104256      -2.92262380 F F F
 Cu            13.77883136      14.10063844      25.20773206       0.00000000       0.00000000       0.00000000      -0.00084124       0.00033278      -0.00030177      -3.22399495 F F F
 Cu            12.67430219      17.05167136      22.05618200       0.00000000       0.00000000       0.00000000      -0.00023982      -0.00035897      -0.00023744      -3.96229818 F F F
 Ni            14.55154301      23.59070993      12.93538911       0.00000000       0.00000000       0.00000000       0.00026578      -0.00010297       0.00048014      -6.32020928 F F F
 Ni            23.02946903      14.64181948      17.16627594       0.00000000       0.00000000       0.00000000      -0.00007978       0.00010547      -0.00036440      -6.34085133 F F F
 Cu            14.89705261      17.81625186      21.30627953       0.00000000       0.00000000       0.00000000      -0.00021795      -0.00034909      -0.00006366      -3.96875182 F F F
 Cu            24.21646987      11.48694222      16.40185744       0.00000000       0.00000000       0.00000000       0.00029422       0.00041580      -0.00065237      -3.07321285 F F F
 Ni            19.39436086      22.15914918       9.85364649       0.00000000       0.00000000       0.00000000       0.00158358       0.00054202       0.00082345      -5.41958104 F F F
 Cu            20.18463484       9.31338361      22.64053904       0.00000000       0.00000000       0.00000000       0.00026678       0.00053895      -0.00013788      -2.79561633 F F F
 Ni             8.09695532      14.23091590      17.29143353       0.00000000       0.00000000       0.00000000      -0.00030166      -0.00047453       0.00006640      -6.12686050 F F F
 Cu            15.28037385      23.93473368      21.05903603       0.00000000       0.00000000       0.00000000      -0.00035879      -0.00045920       0.00066456      -3.18626127 F F F
 Ni            16.13975361      15.36649586      17.46670274       0.00000000       0.00000000       0.00000000      -0.00039264      -0.00010820      -0.00047871      -6.04603610 F F F
 Cu            10.93974935      16.86710693      24.02205430       0.00000000       0.00000000       0.00000000      -0.00053554       0.00003490      -0.00017186      -3.37206667 F F F
 Cu            13.70035062      20.67579528      18.76211022       0.00000000       0.00000000       0.00000000      -0.00049340      -0.00028201       0.00016983      -3.72239875 F F F
 Cu            19.64435968      11.56489903      24.31362551       0.00000000       0.00000000       0.00000000      -0.00011708       0.00022324      -0.00059608      -2.74188158 F F F
 Cu            15.32020231      10.42115784      12.06817797       0.00000000       0.00000000       0.00000000       0.00070347      -0.00002356       0.00194971      -4.04956927 F F F
 Ni            23.40978550      19.55335966      18.57444842       0.00000000       0.00000000       0.00000000       0.00032563       0.00036622       0.00001282      -5.68510923 F F F
 Ni            22.61855899      14.15523320      13.22485580       0.00000000       0.00000000       0.00000000       0.00021742       0.00021168      -0.00035835      -6.00720477 F F F
 Ni            19.22199837      15.99484682      16.48200773       0.00000000       0.00000000       0.00000000      -0.00013495       0.00015090      -0.00036371      -6.30778872 F F F
 Cu            14.85272325      14.27512996      19.22455969       0.00000000       0.00000000       0.00000000      -0.00044734       0.00000084      -0.00044386      -3.84827991 F F F
 Ni            15.41134498      20.43052011      22.79803033       0.00000000       0.00000000       0.00000000      -0.00002692      -0.00012614       0.00024588      -6.36344051 F F F
 Ni            12.38525015      22.58019241      13.05200049       0.00000000       0.00000000       0.00000000       0.00032005      -0.00000710       0.00034135      -6.34832657 F F F
 Cu             6.31271892      15.66871574      21.20577817       0.00000000       0.00000000       0.00000000      -0.00036371       0.00115480      -0.00026824      -2.82717917 F F F
 Cu            24.32877461      17.06085547      11.16709965       0.00000000       0.00000000       0.00000000       0.00020977       0.00007753      -0.00046908      -3.08678388 F F F
 Ni            12.63573821       9.89668537      21.18275223       0.00000000       0.00000000       0.00000000      -0.00003688       0.00030643       0.00042216      -5.72374321 F F F
 Ni            10.07034301      10.59800421      18.26535575       0.00000000       0.00000000       0.00000000      -0.00046990      -0.00034377       0.00013915      -6.01835213 F F F
 Cu             7.11210326      11.96942794      17.96247981       0.00000000       0.00000000       0.00000000      -0.00051148      -0.00000114       0.00009247      -3.26101605 F F F
 Cu             7.75966199      17.72167751      21.14366415       0.00000000       0.00000000       0.00000000       0.00010655       0.00090783      -0.00009404      -3.35520513 F F F
 Ni            13.36680042      18.82632057      14.85291221       0.00000000       0.00000000       0.00000000      -0.00002420      -0.00030607      -0.00029284      -6.38419170 F F F
 Ni            21.81427465      20.13944300      20.33584944       0.00000000       0.00000000       0.00000000       0.00016120      -0.00022513      -0.00009548      -5.79045710 F F F
 Ni            15.49331805      20.49449655      20.44160197       0.00000000       0.00000000       0.00000000      -0.00048913      -0.00030694       0.00015921      -6.18389595 F F F
 Ni            10.05113443      16.98188793      15.53319352       0.00000000       0.00000000       0.00000000       0.00004396      -0.00043317      -0.00027669      -6.27051269 F F F
 Cu             6.43742856      19.49433685      15.53492840       0.00000000       0.00000000       0.00000000      -0.00016715      -0.00031110      -0.00047453      -2.99572791 F F F
 Cu            17.41416460       8.48317359      21.64972816       0.00000000       0.00000000       0.00000000       0.00001409       0.00041372      -0.00016768      -3.23111634 F F F
 Cu            17.03254615      11.72867100      16.58592205       0.00000000       0.00000000       0.00000000       0.00038620      -0.00000238      -0.00007955      -4.29993084 F F F
 Cu            17.28743391      11.82625527      24.79550677       0.00000000       0.00000000       0.00000000      -0.00003781       0.00010585      -0.00000676      -3.08786867 F F F
 Cu            13.75645189      20.41008709       8.59648540       0.00000000       0.00000000       0.00000000       0.00073151       0.00047126       0.00054053      -3.56207763 F F F
 Ni            14.61475956      10.76431815      16.74221056       0.00000000       0.00000000       0.00000000       0.00010984      -0.00016628       0.00006691      -6.41409886 F F F
 Ni            19.72611685      11.36866475      13.04746073       0.00000000       0.00000000       0.00000000       0.00032936      -0.00002187      -0.00018984      -6.28494837 F F F
 Ni            13.35166059      14.87643689      17.47595953       0.00000000       0.00000000       0.00000000      -0.00032362      -0.00036083      -0.00072350      -5.97886053 F F F
 Ni            14.74406605      18.56815399      19.06933417       0.00000000       0.00000000       0.00000000      -0.00043298      -0.00029909      -0.00011523      -6.05971973 F F F
 Cu            21.70953320      22.62480670      13.81056236       0.00000000       0.00000000       0.00000000       0.00158096      -0.00008283       0.00197605      -3.27353205 F F F
 Ni            18.03986061      11.28789538      18.84712093       0.00000000       0.00000000       0.00000000       0.00039686       0.00041728      -0.00031737      -6.13220726 F F F
 Ni            18.72056742       7.70700285      10.17224899       0.00000000       0.00000000       0.00000000      -0.00080366      -0.00048961       0.00022208      -5.18116113 F F F
 Ni            11.70320602      18.07873951      20.07713395       0.00000000       0.00000000       0.00000000      -0.00034184      -0.00018410      -0.00011528      -6.26803768 F F F
 Ni            18.88946394      22.74621029      21.45831148       0.00000000       0.00000000       0.00000000      -0.00021205      -0.00030796       0.00018689      -5.22922749 F F F
 Ni            20.91156052      13.60541053       9.25095822       0.00000000       0.00000000       0.00000000      -0.00006044      -0.00055919      -0.00068758      -6.26892937 F F F
 Ni            12.06131731      15.53835557      12.27442234       0.00000000       0.00000000       0.00000000       0.00008627      -0.00055448      -0.00057845      -6.27554914 F F F
 Ni            18.71977272      24.47111703      17.03538142       0.00000000       0.00000000       0.00000000      -0.00030766      -0.00021120       0.00028289      -5.45412524 F F F
 Ni            11.28128725       9.07309051      19.52381830       0.00000000       0.00000000       0.00000000      -0.00006131       0.00031090       0.00048351      -5.67908297 F F F
 Cu            10.56736880      14.63841863      16.66683947       0.00000000       0.00000000       0.00000000      -0.00033151       0.00004637      -0.00041222      -4.05408974 F F F
 Ni            18.24797382      14.87393868      20.89035191       0.00000000       0.00000000       0.00000000      -0.00022672       0.00020972      -0.00027304      -6.12827634 F F F
 Ni            14.74014019      15.26571146      15.52859145       0.00000000       0.00000000       0.00000000      -0.00058056       0.00002407      -0.00032443      -6.27074897 F F F
 Cu            20.27307687      13.32071931       6.77325899       0.00000000       0.00000000       0.00000000      -0.00066035      -0.00068655      -0.00057826      -3.27503966 F F F
 Ni            21.15961775      15.93211350      17.64514676       0.00000000       0.00000000       0.00000000       0.00010810       0.00025192      -0.00042446      -6.13955191 F F F
 Ni            21.56166236      18.06564760      18.87121839       0.00000000       0.00000000       0.00000000       0.00041757       0.00025574      -0.00054129      -6.36543961 F F F
 Ni            16.95773733       8.88784389      11.16056923       0.00000000       0.00000000       0.00000000      -0.00039837      -0.00052187       0.00016379      -5.92274779 F F F
 Ni            22.00542766      11.60367050       9.93074677       0.00000000       0.00000000       0.00000000      -0.00007219      -0.00036046      -0.00020204      -6.00555324 F F F
 Cu            17.22807871      13.75267815      18.97393071       0.00000000       0.00000000       0.00000000      -0.00020643       0.00031591      -0.00031480      -4.01052052 F F F
 Cu             6.45165121      15.57286648      16.17200147       0.00000000       0.00000000       0.00000000      -0.00057804      -0.00005867       0.00008487      -3.32244847 F F F
 Ni            19.92059651      19.81420173      16.05930130       0.00000000       0.00000000       0.00000000      -0.00032278      -0.00003968       0.00036025      -6.12139661 F F F
 Ni            19.18510782       9.43410957      11.69890582       0.00000000       0.00000000       0.00000000      -0.00030470      -0.00035527       0.00036080      -6.16757814 F F F
 Ni            18.30558526       7.79969496      15.28869756       0.00000000       0.00000000       0.00000000       0.00022416       0.00033586       0.00001239      -6.53276101 F F F
 Ni            17.13388330      16.10623776      15.42761204       0.00000000       0.00000000       0.00000000      -0.00020845      -0.00023486      -0.00047098      -6.22860020 F F F
 Cu             9.95033031       8.31968230      17.53541832       0.00000000       0.00000000       0.00000000      -0.00021284      -0.00004374       0.00079245      -3.13821487 F F F
 Cu            21.62964456       9.93429503      20.65837764       0.00000000       0.00000000       0.00000000       0.00053288       0.00048304      -0.00019953      -3.21331523 F F F
 Ni            14.18495884      11.46939599       8.11823532       0.00000000       0.00000000       0.00000000      -0.00041504       0.00098130       0.00102569      -5.95400203 F F F
 Ni            17.77353053      20.65174134       8.83309953       0.00000000       0.00000000       0.00000000       0.00099318       0.00073340       0.00037060      -5.68052589 F F F
 Cu            15.80847583      21.04038627       7.52620344       0.00000000       0.00000000       0.00000000       0.00095375       0.00075021       0.00045028      -3.14872248 F F F
 Ni            22.65353564      13.10235825      15.38440101       0.00000000       0.00000000       0.00000000       0.00004067       0.00029458      -0.00047364      -6.37048652 F F F
 Ni            14.63534955       8.53809323      10.56293961       0.00000000       0.00000000       0.00000000      -0.00022402       0.00204791       0.00063961      -5.76163718 F F F
 Cu             8.82570794      23.47553701      17.93412233       0.00000000       0.00000000       0.00000000       0.00000540       0.00048164      -0.00018639      -3.01373405 F F F
 Cu             6.28232686      17.70718744      17.18506476       0.00000000       0.00000000       0.00000000      -0.00019613      -0.00005507      -0.00019627      -3.27039463 F F F
 Cu            10.25224443      13.34477735      20.74756796       0.00000000       0.00000000       0.00000000      -0.00020564       0.00010760       0.00022677      -4.13422986 F F F
 Cu             6.97136070      15.09545212      13.65529082       0.00000000       0.00000000       0.00000000      -0.00063419       0.00060861       0.00001466      -3.14550680 F F F
 Cu            19.22555559      22.02447226      17.10094737       0.00000000       0.00000000       0.00000000      -0.00033322      -0.00022491       0.00056162      -3.84379124 F F F
 Ni            21.11124497      17.75477025      21.31156839       0.00000000       0.00000000       0.00000000       0.00021097       0.00057322      -0.00019710      -6.22104112 F F F
 Ni            11.54156456      17.70559545      13.72795832       0.00000000       0.00000000       0.00000000      -0.00019804      -0.00042077       0.00012039      -6.35720512 F F F
 Ni            17.26878996      12.69814360      10.37692139       0.00000000       0.00000000       0.00000000       0.00095556      -0.00037456       0.00042205      -6.20448933 F F F
 Ni            13.57725284      10.65525692      10.25497762       0.00000000       0.00000000       0.00000000      -0.00117264       0.00159493       0.00140241      -6.06177263 F F F
 Ni            18.70518396      12.96507459       8.59013787       0.00000000       0.00000000       0.00000000       0.00023132      -0.00026423      -0.00005228      -6.23818225 F F F
 Cu            16.24458241      14.74370024      11.07020268       0.00000000       0.00000000       0.00000000       0.00088396       0.00009070      -0.00000035      -4.34417529 F F F
 Cu            26.03458554      14.85722233      14.40910488       0.00000000       0.00000000       0.00000000      -0.00000218       0.00074126      -0.00050657      -2.52976792 F F F
 Cu            20.97307409      17.68323109      23.93991847       0.00000000       0.00000000       0.00000000       0.00022546       0.00009858      -0.00008003      -3.31158525 F F F
 Ni            12.91115186      13.73844091      20.46826955       0.00000000       0.00000000       0.00000000      -0.00025994       0.00005932       0.00008099      -6.07048780 F F F
 Cu            20.52550769      16.08579516       9.88164572       0.00000000       0.00000000       0.00000000       0.00003482      -0.00016866      -0.00012636      -3.81709855 F F F
 Cu            23.29706697      19.34281000      10.45284512       0.00000000       0.00000000       0.00000000       0.00108810       0.00026699      -0.00074344      -3.04228321 F F F
 Ni             9.95615092      21.99996404      13.53856378       0.00000000       0.00000000       0.00000000       0.00023543      -0.00014697       0.00016304      -5.84360846 F F F
 Ni            19.42061179      17.82930675      17.92092340       0.00000000       0.00000000       0.00000000       0.00019765      -0.00005663      -0.00028633      -6.27343510 F F F
 Cu            11.02102963      24.41426877      19.02438682       0.00000000       0.00000000       0.00000000      -0.00039520      -0.00014310       0.00022955      -3.24557592 F F F
 Cu            17.19366114      18.00993677      13.63991987       0.00000000       0.00000000       0.00000000      -0.00027296      -0.00036572       0.00027372      -3.95353865 F F F
 Ni            10.20066601      16.24751755      11.11262182       0.00000000       0.00000000       0.00000000      -0.00038187      -0.00051506      -0.00063737      -6.24133241 F F F
 Ni            11.86083329      11.59633109      19.56256339       0.00000000       0.00000000       0.00000000      -0.00010946       0.00019092       0.00010909      -6.48934692 F F F
 Cu            24.29737721      11.26463959       9.79189113       0.00000000       0.00000000       0.00000000      -0.00033689      -0.00024762      -0.00060620      -2.86863638 F F F
 Ni            17.17169847       9.06273769      13.48217672       0.00000000       0.00000000       0.00000000      -0.00069258      -0.00028891       0.00021805      -6.54048311 F F F
 Ni            23.33804272      18.80330012      12.77103911       0.00000000       0.00000000       0.00000000      -0.00061457       0.00049984      -0.00052010      -5.87226395 F F F
 Cu            20.58420151      11.70220597      22.09958745       0.00000000       0.00000000       0.00000000       0.00038266       0.00056749      -0.00035250      -3.45874211 F F F
 Cu            13.69532821      24.67462891      19.32972507       0.00000000       0.00000000       0.00000000      -0.00026794      -0.00029763       0.00037403      -3.13245333 F F F
 Ni            11.36911893      15.60746064      20.46807823       0.00000000       0.00000000       0.00000000      -0.00037871      -0.00013256      -0.00023904      -6.34080186 F F F
 Ni            13.64900686      21.45268032      10.94272857       0.00000000       0.00000000       0.00000000       0.00081141       0.00022575       0.00020597      -6.09385527 F F F
 Cu            15.01515406      26.40432555      18.24914803       0.00000000       0.00000000       0.00000000      -0.00017093      -0.00012792       0.00073986      -2.89944116 F F F
 Ni            11.41350893      19.01902567      22.43051997       0.00000000       0.00000000       0.00000000       0.00003854      -0.00035657       0.00032908      -5.98459720 F F F
 Ni            20.45133588       9.77321513      18.48999460       0.00000000       0.00000000       0.00000000       0.00034358       0.00054781      -0.00020624      -6.38366076 F F F
 Cu            15.80589475      17.65345774       5.99507491       0.00000000       0.00000000       0.00000000       0.00089652       0.00076854       0.00032391      -3.05902467 F F F
 Ni            21.55044048      21.72977462      16.13101463       0.00000000       0.00000000       0.00000000      -0.00002342       0.00013463       0.00024853      -5.98656821 F F F
 Cu            17.03764163      18.67273962      19.82722761       0.00000000       0.00000000       0.00000000      -0.00056662      -0.00001932       0.00007674      -3.81786527 F F F
 Cu            24.15870854      12.81174469      18.52053867       0.00000000       0.00000000       0.00000000       0.00036608       0.00030404      -0.00055542      -3.26737654 F F F
 Ni            18.78662379       7.32404949      12.64395037       0.00000000       0.00000000       0.00000000      -0.00020235      -0.00012643       0.00057366      -5.94338855 F F F
 Cu            16.27466556      13.67631091      26.07700249       0.00000000       0.00000000       0.00000000       0.00027606       0.00004856       0.00037865      -2.84302406 F F F
 Ni             9.88999021      20.86284368      15.86752092       0.00000000       0.00000000       0.00000000       0.00003390      -0.00035297      -0.00001141      -6.39591956 F F F
 Cu             7.41003077      22.04223577      19.27597437       0.00000000       0.00000000       0.00000000      -0.00145544       0.00066210      -0.00237327      -2.91996216 F F F
 Cu            20.99336406      23.47129386      17.82438439       0.00000000       0.00000000       0.00000000      -0.00065516       0.00020960       0.00006403      -3.13150218 F F F
 Ni            18.09797269      16.19349952      23.32212412       0.00000000       0.00000000       0.00000000       0.00005678      -0.00011596      -0.00000282      -6.34636369 F F F
 Cu            22.35102419      12.42749097       7.58180566       0.00000000       0.00000000       0.00000000      -0.00040401      -0.00085557      -0.00034413      -2.96640795 F F F
 Ni            19.21688170      16.96534606      14.25931316       0.00000000       0.00000000       0.00000000      -0.00003954      -0.00002089      -0.00032122      -5.92033999 F F F
 Ni            24.41924034      12.64673862      13.85122340       0.00000000       0.00000000       0.00000000       0.00009034       0.00025586      -0.00039829      -5.81615022 F F F
 Ni            15.90394543      10.47043076       9.65738690       0.00000000       0.00000000       0.00000000       0.00022507       0.00134957       0.00072217      -6.08019975 F F F
 Ni            17.04480396      23.23182363      12.99998574       0.00000000       0.00000000       0.00000000       0.00081996       0.00010973       0.00072826      -6.06661273 F F F
 Cu            23.74768158      20.40583360      14.59032751       0.00000000       0.00000000       0.00000000      -0.00052826       0.00078064      -0.00085132      -3.25618003 F F F
 Ni            10.26037214      18.54435688      17.98096611       0.00000000       0.00000000       0.00000000      -0.00029138       0.00004461      -0.00026842      -6.23197675 F F F
 Cu            18.12864131      10.64293278      22.77088037       0.00000000       0.00000000       0.00000000      -0.00023359       0.00003580      -0.00030403      -3.54424362 F F F
 Ni            20.40245021      13.84357822      21.13009594       0.00000000       0.00000000       0.00000000      -0.00000754       0.00064417      -0.00034270      -6.25267799 F F F
 Cu            16.83178872      25.82405410      16.67949365       0.00000000       0.00000000       0.00000000      -0.00017960      -0.00041456       0.00077571      -3.40157321 F F F
 Ni            18.39745616      17.13455132      20.93554961       0.00000000       0.00000000       0.00000000      -0.00058135       0.00003645      -0.00007779      -6.20132265 F F F
 Ni            15.83990282      15.88072758      13.39796395       0.00000000       0.00000000       0.00000000      -0.00027754      -0.00058194      -0.00050030      -6.20255561 F F F
 Cu             7.06790569      10.82190877      15.29843404       0.00000000       0.00000000       0.00000000       0.00032812       0.00047009      -0.00010284      -2.99044687 F F F
 Ni            12.26844310      22.55779622      19.64671066       0.00000000       0.00000000       0.00000000      -0.00074010      -0.00027349       0.00025774      -6.17650416 F F F
 Ni            14.95380188      12.51191352      10.22131914       0.00000000       0.00000000       0.00000000       0.00144982       0.00217672      -0.00137658      -6.20414768 F F F
 Ni            15.01571179       7.99308852      12.77769058       0.00000000       0.00000000       0.00000000      -0.00026183      -0.00060857      -0.00064323      -5.93066212 F F F
 Ni            14.24920152      15.37102754      21.35458665       0.00000000       0.00000000       0.00000000      -0.00013767      -0.00012121      -0.00029143      -5.96446430 F F F
 Ni             9.59287774      17.09037067      19.63864868       0.00000000       0.00000000       0.00000000      -0.00035825       0.00022500      -0.00013640      -6.25312337 F F F
 Cu            13.45477674      12.43552895      18.05486469       0.00000000       0.00000000       0.00000000       0.00015284       0.00002197      -0.00026067      -4.04625145 F F F
 Cu             9.86100528      20.06001799       9.87629156       0.00000000       0.00000000       0.00000000       0.00069347      -0.00022638       0.00024656      -3.25074017 F F F
 Ni            21.40272567      10.24418567      11.75900837       0.00000000       0.00000000       0.00000000      -0.00015989      -0.00022848       0.00001544      -6.20973483 F F F
 Cu            22.46529543      10.07004982       8.15989362       0.00000000       0.00000000       0.00000000      -0.00075730      -0.00068060      -0.00008564      -2.64786485 F F F
 Cu             7.78922916      15.85763142      11.48164870       0.00000000       0.00000000       0.00000000      -0.00014904       0.00030866      -0.00015588      -3.14665992 F F F
 Ni            16.92253338      18.37918212      22.48742177       0.00000000       0.00000000       0.00000000      -0.00032576      -0.00019373       0.00014598      -6.33013888 F F F
 Cu             9.08156629      18.94069676      22.98476905       0.00000000       0.00000000       0.00000000       0.00047974      -0.00065963       0.00082463      -3.14421779 F F F
 Ni            14.15822416      14.18140362      13.44619572       0.00000000       0.00000000       0.00000000      -0.00070498      -0.00045753       0.00060255      -6.22557749 F F F
 Cu            21.34249128      18.72409722       9.33392337       0.00000000       0.00000000       0.00000000       0.00237327      -0.00003379      -0.00194891      -3.34245739 F F F
 Cu             9.62583507      19.39492889      20.55010956       0.00000000       0.00000000       0.00000000      -0.00015294      -0.00021929       0.00027495      -3.86985015 F F F
 Cu            19.86885838      15.80518449      24.93435380       0.00000000       0.00000000       0.00000000       0.00015909       0.00012013      -0.00018689      -3.20650977 F F F
 Cu            12.21008607       7.49713963      17.78787165       0.00000000       0.00000000       0.00000000       0.00019526      -0.00004718       0.00140788      -3.21174709 F F F
 Cu            18.21971380      13.53866171      23.00555866       0.00000000       0.00000000       0.00000000      -0.00013013       0.00008343      -0.00031195      -4.20026832 F F F
 Cu            10.63439405      23.44196907      11.61151362       0.00000000       0.00000000       0.00000000       0.00023674      -0.00015622       0.00027526      -3.06375287 F F F
 Cu            19.49413703      23.64974114      13.14623262       0.00000000       0.00000000       0.00000000       0.00158706      -0.00150789      -0.00085725      -3.26950932 F F F
 Ni            17.58213737      20.98169029      13.62493790       0.00000000       0.00000000       0.00000000       0.00013535      -0.00018840       0.00096914      -6.46409210 F F F
 Ni            17.14626584      16.94899847       7.83095550       0.00000000       0.00000000       0.00000000       0.00094535       0.00042440      -0.00017607      -6.34430416 F F F