     480
 Properties=species:S:1:pos:R:3:velocities:R:3:forces:R:3:local_energy:R:1:fix_atoms:S:3 Lattice="31.6575874013       0.0000000000    0.0000000000    0.0000000000   31.4396548309    0.0000000000    0.0000000000    0.0000000000   31.8225730859" temperature=0.00000000 pressure=1.72371949 time_step=1.0000 time=45.000000 energy=-2263.175156 energy_soap=-753.32756775  energy_2b=-1074.75733914 energy_3b=0.00000000 energy_core_pot=0.00000000 energy_vdw=0.00000000 energy_exp=0.00000000 energy_xps=0.00000000 virial="-0.58014731          -0.83561255     -0.92501640     -0.83561255     -1.43803831      0.33915503     -0.92501640      0.33915503      2.12041326" stress="0.00001832            0.00002638      0.00002921      0.00002638      0.00004540     -0.00001071      0.00002921     -0.00001071     -0.00006695" volume=31673.122212 step=45
 Cu             9.01792791      12.52647389      20.76938799       0.00000000       0.00000000       0.00000000      -0.00145529       0.00137806      -0.00239893      -3.49903809 F F F
 Cu            21.23885455       8.03482869      13.18909451       0.00000000       0.00000000       0.00000000       0.00276962       0.00254811       0.00131676      -3.07788230 F F F
 Ni            11.76257451      20.27265704       9.15658171       0.00000000       0.00000000       0.00000000       0.00055181      -0.00063456      -0.00066052      -5.40833719 F F F
 Ni            14.66716611      10.66199486      10.97903613       0.00000000       0.00000000       0.00000000       0.00223320      -0.00150723      -0.00024178      -6.29324252 F F F
 Cu            17.99070390      18.87455404       8.09326127       0.00000000       0.00000000       0.00000000      -0.00090515       0.00025677      -0.00071340      -3.26443919 F F F
 Ni            12.88796428      11.58682099      18.34408669       0.00000000       0.00000000       0.00000000      -0.00378927       0.00065878       0.00179763      -6.32499696 F F F
 Ni            11.08963412       9.24915213      20.22224833       0.00000000       0.00000000       0.00000000      -0.00127045       0.00372449       0.00056777      -5.82176419 F F F
 Cu            25.04958955      18.88772444      14.65761029       0.00000000       0.00000000       0.00000000      -0.00983803      -0.01010096      -0.00191123      -3.31684492 F F F
 Cu            12.73690124      20.07563207      18.92071319       0.00000000       0.00000000       0.00000000      -0.00066667       0.00139667      -0.00057854      -4.00240697 F F F
 Cu            16.51315684      18.81685867      15.71445970       0.00000000       0.00000000       0.00000000      -0.00118834      -0.00218937       0.00115729      -4.12096158 F F F
 Cu            20.16714067      13.80588537      23.67956919       0.00000000       0.00000000       0.00000000      -0.00079910       0.00040290       0.00205535      -3.25129270 F F F
 Ni            20.29033368      17.01793730      21.45404303       0.00000000       0.00000000       0.00000000      -0.00206894      -0.00013842       0.00281515      -6.32685140 F F F
 Ni            20.61103062      18.55861543      23.15360668       0.00000000       0.00000000       0.00000000      -0.00118747      -0.00069104       0.00279500      -5.68807518 F F F
 Cu            12.71877255      18.31907863      17.13852694       0.00000000       0.00000000       0.00000000      -0.00006566      -0.00278548      -0.00068929      -3.82357270 F F F
 Cu             6.00067740      15.54147706      13.30922813       0.00000000       0.00000000       0.00000000      -0.00013548       0.00123016      -0.00252939      -2.70189343 F F F
 Ni            18.13740430      17.55389737      12.38146136       0.00000000       0.00000000       0.00000000      -0.00172712       0.00005122      -0.00016754      -6.29864333 F F F
 Cu            20.14048319      24.19003180      20.98849769       0.00000000       0.00000000       0.00000000       0.00434875      -0.00306067      -0.00356765      -3.12817400 F F F
 Ni            17.98104747      23.74182966      22.31677897       0.00000000       0.00000000       0.00000000       0.00397208      -0.00141295       0.00084252      -5.12981457 F F F
 Cu            10.71981084      19.06901709      25.02959386       0.00000000       0.00000000       0.00000000       0.00299104      -0.00137089       0.00216952      -2.70018661 F F F
 Ni            22.71514439      16.18906044      11.67402500       0.00000000       0.00000000       0.00000000       0.00359391      -0.00094668      -0.00511561      -6.24935595 F F F
 Cu            17.49951917      19.46053337      24.96588508       0.00000000       0.00000000       0.00000000       0.00672890      -0.00572449       0.00536146      -3.20654083 F F F
 Cu            12.26076848       9.38874043      22.52752409       0.00000000       0.00000000       0.00000000      -0.00042872       0.00407709       0.00113177      -3.18263636 F F F
 Cu             8.58439890       8.89017057      16.00419373       0.00000000       0.00000000       0.00000000       0.00101382       0.00142518      -0.00021109      -2.73997515 F F F
 Cu             8.82063576      10.11353225      13.55449022       0.00000000       0.00000000       0.00000000       0.00150219       0.00036509      -0.00115204      -3.32941218 F F F
 Ni            17.02406020      23.24624422      15.10012976       0.00000000       0.00000000       0.00000000      -0.00169163      -0.00009414       0.00059631      -5.98485431 F F F
 Ni            14.37283704      22.87828010      11.11278999       0.00000000       0.00000000       0.00000000      -0.00212893      -0.00050151      -0.00006931      -6.06450645 F F F
 Ni            15.52292418      11.69872849      21.72531866       0.00000000       0.00000000       0.00000000      -0.00385632       0.00106622       0.00209400      -6.20151865 F F F
 Cu            18.92251010      18.73135949      18.76417133       0.00000000       0.00000000       0.00000000      -0.00242206      -0.00026617      -0.00033351      -4.35314354 F F F
 Ni            12.43655306       8.65576570      14.83680823       0.00000000       0.00000000       0.00000000       0.00329645       0.00066588       0.00183729      -5.95660345 F F F
 Ni             8.96854291      22.78235781      19.11674401       0.00000000       0.00000000       0.00000000       0.00109855       0.00041233       0.00300567      -5.51553584 F F F
 Cu             9.14638736      23.04762415      14.30788451       0.00000000       0.00000000       0.00000000       0.00096750       0.00208186       0.00266492      -3.25914615 F F F
 Cu            10.74232490      12.74696544      14.69102041       0.00000000       0.00000000       0.00000000      -0.00003079       0.00087783      -0.00042898      -4.16069573 F F F
 Ni             7.90974757      17.54762647       9.85416065       0.00000000       0.00000000       0.00000000       0.00082281       0.00065235      -0.00156141      -5.31097939 F F F
 Ni            17.23593437      19.67345946      20.39996371       0.00000000       0.00000000       0.00000000       0.00178947       0.00011041      -0.00065391      -6.10129563 F F F
 Cu            19.72668471      20.82386297       9.20870304       0.00000000       0.00000000       0.00000000      -0.00139522      -0.00151863      -0.00038249      -3.12302913 F F F
 Cu             6.38271191      15.92903590      10.90478753       0.00000000       0.00000000       0.00000000       0.00098457       0.00133198      -0.00167007      -2.70822525 F F F
 Ni            20.69068944      10.19879066      18.37160749       0.00000000       0.00000000       0.00000000       0.00251675       0.00360781       0.00050182      -6.15099346 F F F
 Ni            19.43124889       8.80906602      16.92868966       0.00000000       0.00000000       0.00000000       0.00126859       0.00177474       0.00040151      -6.12811178 F F F
 Ni            18.43299876      16.43028981      19.24852637       0.00000000       0.00000000       0.00000000      -0.00150376       0.00035175       0.00116257      -6.12266044 F F F
 Ni            13.81504725      11.99065957       9.13829143       0.00000000       0.00000000       0.00000000       0.00147814      -0.00085872      -0.00136172      -6.44886926 F F F
 Cu            13.62376065      12.52249569      25.10269115       0.00000000       0.00000000       0.00000000      -0.00169200       0.00135194       0.00187084      -2.96880576 F F F
 Cu             9.27777477      19.63777380      22.37626293       0.00000000       0.00000000       0.00000000       0.00059991      -0.00010584       0.00277476      -3.11660432 F F F
 Cu             7.84484937      21.25630518      15.25794577       0.00000000       0.00000000       0.00000000       0.00074446       0.00208516       0.00154432      -3.34356566 F F F
 Cu            24.99686727      15.73912221      19.83178991       0.00000000       0.00000000       0.00000000      -0.00216379      -0.00038250      -0.00112285      -2.97726001 F F F
 Cu            12.54221287      20.81600494      14.12335449       0.00000000       0.00000000       0.00000000      -0.00194803      -0.00069803      -0.00054191      -4.06003416 F F F
 Ni            13.06005883      14.83136106      21.94684023       0.00000000       0.00000000       0.00000000      -0.00230154       0.00022517       0.00069203      -6.29094673 F F F
 Ni             9.95134602      17.29263985      21.03192913       0.00000000       0.00000000       0.00000000      -0.00187546       0.00071768       0.00063660      -6.35522945 F F F
 Ni            10.42315986      10.18310333      15.61370902       0.00000000       0.00000000       0.00000000       0.00045643       0.00130794       0.00012583      -5.85691053 F F F
 Ni            11.47545163      18.85377216      12.73143039       0.00000000       0.00000000       0.00000000      -0.00056790      -0.00125913      -0.00111205      -6.15530658 F F F
 Cu            21.52969678      20.64620415      22.40817087       0.00000000       0.00000000       0.00000000       0.00172218      -0.00095090       0.00409698      -3.24704815 F F F
 Ni            13.54903164      19.70437491      21.30141967       0.00000000       0.00000000       0.00000000       0.00006031      -0.00350859      -0.00386297      -6.27786290 F F F
 Ni            22.14397042      20.96942051      17.11775605       0.00000000       0.00000000       0.00000000      -0.00317190      -0.00035804      -0.00137192      -6.12865066 F F F
 Ni            10.10317994       9.26766607      11.71677771       0.00000000       0.00000000       0.00000000       0.00191884      -0.00051413      -0.00068866      -5.20953666 F F F
 Ni            19.24946814       8.08825415      14.65682264       0.00000000       0.00000000       0.00000000       0.00333872       0.00133271       0.00122940      -6.07480640 F F F
 Ni            23.25529009      14.02132514      17.42088095       0.00000000       0.00000000       0.00000000      -0.00058353       0.00146024      -0.00281489      -6.08716033 F F F
 Ni             9.25835020      13.34460834      18.26105039       0.00000000       0.00000000       0.00000000      -0.00126056       0.00192777      -0.00255763      -6.30368603 F F F
 Ni            18.06489028      19.58304644      22.65057307       0.00000000       0.00000000       0.00000000      -0.00283791       0.00115283       0.00297194      -6.15195052 F F F
 Ni            16.05686975       6.05715891      15.17474822       0.00000000       0.00000000       0.00000000       0.00325602       0.00071278       0.00303218      -5.37929784 F F F
 Cu            12.18878200      25.68808223      16.75168832       0.00000000       0.00000000       0.00000000       0.00162794       0.00205976       0.00530557      -2.91780272 F F F
 Ni            12.47293478      13.84005407       8.26484101       0.00000000       0.00000000       0.00000000      -0.00133977      -0.00183123      -0.00049561      -6.19563286 F F F
 Ni            18.11603516      17.01176623      14.86021887       0.00000000       0.00000000       0.00000000      -0.00272490      -0.00232591       0.00014631      -6.36259805 F F F
 Cu            13.95017820      12.65011000       6.63352942       0.00000000       0.00000000       0.00000000       0.00133179       0.00058613      -0.00060599      -3.43794190 F F F
 Ni            13.31579434      16.30405687      11.31535753       0.00000000       0.00000000       0.00000000       0.00003388      -0.00161923      -0.00207498      -6.24612770 F F F
 Ni            10.31427772      16.50958986       9.72744431       0.00000000       0.00000000       0.00000000       0.00085632      -0.00159091      -0.00182863      -6.16579107 F F F
 Ni            20.34670223      10.26381221      13.58762378       0.00000000       0.00000000       0.00000000       0.00104152       0.00175258      -0.00070684      -6.17651872 F F F
 Ni            11.07784466      14.48123896      16.67493942       0.00000000       0.00000000       0.00000000      -0.00012527      -0.00100042      -0.00219436      -5.96944783 F F F
 Cu            20.74087901      10.93606524      16.06559583       0.00000000       0.00000000       0.00000000      -0.00122379       0.00227952       0.00072602      -4.18959318 F F F
 Cu            18.70777983      11.33370102       8.08579143       0.00000000       0.00000000       0.00000000      -0.00193117      -0.00302613       0.00087034      -3.63642309 F F F
 Ni            14.76983911       9.21501381      15.24116949       0.00000000       0.00000000       0.00000000       0.00002626       0.00146589      -0.00519672      -6.20949189 F F F
 Ni            14.33450478      22.45434235      15.19937805       0.00000000       0.00000000       0.00000000      -0.00095103       0.00128364       0.00284362      -6.55545974 F F F
 Ni            20.80572046      17.45741795      19.14326886       0.00000000       0.00000000       0.00000000      -0.00315984       0.00091965       0.00366095      -6.11273814 F F F
 Ni            16.12625967      16.65279978      11.49074224       0.00000000       0.00000000       0.00000000      -0.00077491      -0.00030107      -0.00113551      -6.11724515 F F F
 Cu            16.07335029      22.56290540       9.35547778       0.00000000       0.00000000       0.00000000      -0.00190142      -0.00020382       0.00007296      -3.10742272 F F F
 Cu            11.91844195      22.32637731      10.67886727       0.00000000       0.00000000       0.00000000      -0.00060486      -0.00040450      -0.00118902      -3.35312136 F F F
 Ni            23.12526285      12.75510052      13.66754639       0.00000000       0.00000000       0.00000000      -0.00053605       0.00172888      -0.00247877      -6.02229232 F F F
 Ni            17.19390881      13.43036950      12.17630098       0.00000000       0.00000000       0.00000000       0.00000970      -0.00030321       0.00047146      -6.23491224 F F F
 Cu            15.36780656       5.29658897      17.27014834       0.00000000       0.00000000       0.00000000      -0.00066194       0.00259211       0.00176763      -2.63632045 F F F
 Ni            13.19800960       8.42345316      17.01641989       0.00000000       0.00000000       0.00000000       0.00232846       0.00189200       0.00212857      -5.97637023 F F F
 Ni            13.62686213      21.44721223      22.93008919       0.00000000       0.00000000       0.00000000       0.00288499      -0.00998860      -0.00019999      -5.79333954 F F F
 Cu            19.69961057      20.45420020      24.20878292       0.00000000       0.00000000       0.00000000      -0.00002728      -0.00205620       0.00356727      -2.88646732 F F F
 Cu            13.45418700      17.34413868       6.69408849       0.00000000       0.00000000       0.00000000       0.00134681      -0.00181801       0.00034508      -3.14306454 F F F
 Cu            10.60440533      10.01498340       9.33970250       0.00000000       0.00000000       0.00000000       0.00507962      -0.00165454       0.00004856      -2.92643197 F F F
 Cu            11.53488809      15.92102386       6.83365259       0.00000000       0.00000000       0.00000000       0.00089365      -0.00110596      -0.00131002      -3.17627026 F F F
 Cu             8.51360681      11.63467123      15.46417899       0.00000000       0.00000000       0.00000000       0.00035001       0.00117944      -0.00161374      -3.43748122 F F F
 Ni            10.91915401      15.76544120      22.54477237       0.00000000       0.00000000       0.00000000      -0.00240170      -0.00140933       0.00105579      -6.30941710 F F F
 Ni            14.41196604      15.75741171      20.09919415       0.00000000       0.00000000       0.00000000      -0.00225628      -0.00222917      -0.00189376      -6.42138478 F F F
 Ni            11.43520275      18.20963174      23.04688835       0.00000000       0.00000000       0.00000000      -0.00329190      -0.00225408      -0.00023295      -5.98380366 F F F
 Ni            20.34396732      18.54595025      12.62361862       0.00000000       0.00000000       0.00000000      -0.00243497       0.00000662      -0.00066219      -6.32397589 F F F
 Ni            13.80273565      18.72906994       9.15721714       0.00000000       0.00000000       0.00000000      -0.00011720      -0.00126465      -0.00194877      -6.23095978 F F F
 Cu            20.18540095       6.58672292      16.31508080       0.00000000       0.00000000       0.00000000       0.00300859       0.00219049       0.00246847      -3.00770210 F F F
 Cu            14.95712250      16.50712763      25.05140052       0.00000000       0.00000000       0.00000000      -0.00039123      -0.00046414       0.00119533      -3.49229509 F F F
 Cu            19.60293175      18.08436435      25.33540854       0.00000000       0.00000000       0.00000000       0.00228708      -0.00511118       0.00380286      -2.83317486 F F F
 Ni            13.01087288      24.74706421      14.67822850       0.00000000       0.00000000       0.00000000       0.00045627      -0.00067816       0.00518205      -5.54915628 F F F
 Cu            21.07599305      11.71073922       7.53654762       0.00000000       0.00000000       0.00000000      -0.00486261       0.00201201      -0.00358505      -2.72925170 F F F
 Cu            22.61814781      10.37514436      14.15884926       0.00000000       0.00000000       0.00000000       0.00201404       0.00035223      -0.00158127      -3.64309347 F F F
 Ni            12.64030114      11.11982211      20.83088870       0.00000000       0.00000000       0.00000000       0.00014954       0.00246417      -0.00270336      -6.60913479 F F F
 Ni            19.52125445      20.82058859      17.35024416       0.00000000       0.00000000       0.00000000       0.00103170      -0.00148970       0.00027708      -6.25363768 F F F
 Cu            25.52938989      14.90451342      17.32197515       0.00000000       0.00000000       0.00000000       0.00107172      -0.00372823      -0.00013454      -3.30127294 F F F
 Cu            10.83367586       7.67171267      16.34666923       0.00000000       0.00000000       0.00000000       0.00035651       0.00134365       0.00138681      -3.45192825 F F F
 Ni            11.75848397      22.81827947      15.16529813       0.00000000       0.00000000       0.00000000       0.00141913      -0.00119454       0.00156804      -6.21657738 F F F
 Ni            11.86205176      18.17552306      10.47592531       0.00000000       0.00000000       0.00000000       0.00065402      -0.00123743      -0.00055546      -6.40907233 F F F
 Cu            14.54332254      25.52084312      17.46932800       0.00000000       0.00000000       0.00000000       0.00141909       0.00070957       0.00361301      -3.15759332 F F F
 Ni            10.78100346      19.58792799      17.42843200       0.00000000       0.00000000       0.00000000      -0.00174491       0.00098990      -0.00013417      -6.27684401 F F F
 Ni            19.63825091      11.61869812      22.76780003       0.00000000       0.00000000       0.00000000      -0.00196080      -0.00018156       0.00013595      -5.51604495 F F F
 Cu             8.92650444      10.79009574      17.65992908       0.00000000       0.00000000       0.00000000      -0.00001294       0.00134775      -0.00131429      -3.61038731 F F F
 Cu            17.01374993       9.32823084      16.85620085       0.00000000       0.00000000       0.00000000       0.00108348       0.00105141       0.00161844      -4.33011209 F F F
 Ni            16.31764393      11.17168106       9.08687151       0.00000000       0.00000000       0.00000000       0.00014670      -0.00217758       0.00047697      -6.16235255 F F F
 Ni            14.74481804      11.02639244      19.67261204       0.00000000       0.00000000       0.00000000      -0.00294116      -0.00035806       0.00200121      -6.25316602 F F F
 Cu             6.69173835      19.59287069      16.47563113       0.00000000       0.00000000       0.00000000      -0.00035552       0.00221807       0.00062314      -2.84567749 F F F
 Ni            17.06564914      19.88761954      17.98286311       0.00000000       0.00000000       0.00000000      -0.00026025       0.00242273      -0.00169549      -6.06138597 F F F
 Ni            13.07444616      13.20424535      16.31718651       0.00000000       0.00000000       0.00000000      -0.00328944      -0.00141701      -0.00201303      -6.36139201 F F F
 Cu            11.29301135      20.66698426      23.20227763       0.00000000       0.00000000       0.00000000       0.00212487      -0.00247445       0.00328184      -3.36133944 F F F
 Ni            16.29714886      17.72201917      19.14178588       0.00000000       0.00000000       0.00000000      -0.00050902       0.00098755      -0.00197666      -6.43661568 F F F
 Cu             9.38608743      13.58235565      10.32779717       0.00000000       0.00000000       0.00000000       0.00054999       0.00003035      -0.00297807      -3.29918046 F F F
 Cu             7.00825675      13.33135822      14.35080930       0.00000000       0.00000000       0.00000000       0.00043563       0.00146268      -0.00249854      -3.18738547 F F F
 Ni            21.46875749      14.94613560      21.98544605       0.00000000       0.00000000       0.00000000      -0.00069288      -0.00003659       0.00158618      -5.69701809 F F F
 Cu            13.00642557      20.13783096      24.89522921       0.00000000       0.00000000       0.00000000       0.00233857       0.00159556       0.00781360      -3.12557348 F F F
 Ni            13.28135172       9.27145144      19.22318569       0.00000000       0.00000000       0.00000000       0.00252713       0.00363385       0.00024760      -6.38775765 F F F
 Cu            12.89416616       7.58047604      20.89963525       0.00000000       0.00000000       0.00000000      -0.00085650       0.00298008       0.00377770      -3.07027581 F F F
 Cu            11.70962056      13.68729617      18.78152928       0.00000000       0.00000000       0.00000000       0.00105566       0.00069660      -0.00258454      -4.23370371 F F F
 Ni            19.64227129      16.92675376      17.07783020       0.00000000       0.00000000       0.00000000       0.00060407       0.00031177       0.00093567      -6.37197126 F F F
 Cu            13.37319390      19.88189503       7.21222819       0.00000000       0.00000000       0.00000000       0.00010047      -0.00107673      -0.00083435      -2.85686571 F F F
 Ni            15.69223079      20.17056567      22.34365616       0.00000000       0.00000000       0.00000000      -0.00098761      -0.00334773      -0.00927553      -6.60761071 F F F
 Ni            11.44380774      12.25258519       9.86529288       0.00000000       0.00000000       0.00000000       0.00188303      -0.00188793      -0.00019259      -6.04441083 F F F
 Ni            10.90398004      12.12031602      17.02841489       0.00000000       0.00000000       0.00000000       0.00218178       0.00155353      -0.00254762      -6.14550777 F F F
 Ni            18.36777172      19.26449122      13.97059220       0.00000000       0.00000000       0.00000000      -0.00242123       0.00058081      -0.00074025      -6.20254830 F F F
 Cu            19.16156131      24.36977410      14.60776274       0.00000000       0.00000000       0.00000000      -0.00172522      -0.00116978      -0.00016031      -3.34567723 F F F
 Ni            20.31190237      17.86094369      14.92876355       0.00000000       0.00000000       0.00000000      -0.00024330      -0.00009593      -0.00004859      -6.05561976 F F F
 Cu             8.68853968      20.55199241      17.57919860       0.00000000       0.00000000       0.00000000      -0.00070426       0.00136991       0.00062439      -3.60638932 F F F
 Ni            20.37465768      22.57827057      16.03705825       0.00000000       0.00000000       0.00000000      -0.00155686      -0.00047333      -0.00066096      -6.07349455 F F F
 Cu            11.97209191       6.38510175      14.07270237       0.00000000       0.00000000       0.00000000       0.00062870      -0.00027151       0.00294599      -2.95834343 F F F
 Ni            22.83119731      12.15118088      15.89348974       0.00000000       0.00000000       0.00000000       0.00025739       0.00215109      -0.00170791      -5.92062602 F F F
 Ni            13.82325648       8.51948834      11.21637484       0.00000000       0.00000000       0.00000000       0.00315286      -0.00124791       0.00092974      -5.85367128 F F F
 Cu            21.89722747       9.80315684      11.63898589       0.00000000       0.00000000       0.00000000       0.00096422       0.00118583      -0.00183032      -3.10775248 F F F
 Ni            19.98629251      12.73449973      18.78229728       0.00000000       0.00000000       0.00000000       0.00110264       0.00155303      -0.00065138      -6.38333498 F F F
 Ni            11.46348586      13.23473080      21.21296980       0.00000000       0.00000000       0.00000000      -0.00119258       0.00297856      -0.00334495      -6.34149184 F F F
 Ni            20.18806179      15.25671565      15.47325148       0.00000000       0.00000000       0.00000000      -0.00207187      -0.00074518      -0.00062476      -6.37753234 F F F
 Ni            15.07088305      20.52748262      10.46466423       0.00000000       0.00000000       0.00000000      -0.00270957      -0.00037513      -0.00110294      -6.05758835 F F F
 Ni            14.62405197      21.83592757      20.74215511       0.00000000       0.00000000       0.00000000       0.00021530       0.00040915       0.00013855      -6.37930400 F F F
 Cu            11.87184564      14.05425800      24.04155373       0.00000000       0.00000000       0.00000000      -0.00232970       0.00188462       0.00347568      -3.61697463 F F F
 Cu            15.43433819       7.22822619      20.96023783       0.00000000       0.00000000       0.00000000      -0.00280966       0.00343982       0.00310761      -3.13487510 F F F
 Ni            15.33113055      18.10180963      21.19760159       0.00000000       0.00000000       0.00000000      -0.00077375      -0.00378556      -0.00140244      -6.29888365 F F F
 Cu            22.57158367      11.60297285       9.96321439       0.00000000       0.00000000       0.00000000      -0.00174704      -0.00017472      -0.00266853      -3.28616055 F F F
 Cu            21.57330783      24.67521690      18.88445722       0.00000000       0.00000000       0.00000000       0.00253881      -0.00091956      -0.00460580      -2.70911527 F F F
 Ni            21.46306049      15.38853850      17.91960997       0.00000000       0.00000000       0.00000000       0.00059348       0.00297534       0.00229514      -6.33394465 F F F
 Cu            12.99128038       6.30322985      11.72022303       0.00000000       0.00000000       0.00000000       0.00135441      -0.00151857       0.00376470      -3.06615876 F F F
 Ni             8.84289559      18.91083810      15.60641435       0.00000000       0.00000000       0.00000000      -0.00066448       0.00120798      -0.00094309      -6.42481860 F F F
 Cu            17.65804455      17.40810659       6.19899973       0.00000000       0.00000000       0.00000000       0.00023274      -0.00066772      -0.00151295      -2.88792895 F F F
 Cu            20.59179934      10.14216641       9.41454563       0.00000000       0.00000000       0.00000000      -0.00074361       0.00037257      -0.00257232      -2.99984303 F F F
 Cu            15.56186484      22.83776107      22.98554212       0.00000000       0.00000000       0.00000000      -0.00151422      -0.00258225       0.00247724      -3.31543213 F F F
 Cu            22.47988739      23.44106612      16.79049815       0.00000000       0.00000000       0.00000000      -0.00020425      -0.00263928      -0.00153940      -3.24161078 F F F
 Cu            13.65424708      21.69514743       9.02314935       0.00000000       0.00000000       0.00000000      -0.00036848      -0.00009418      -0.00087831      -3.27113675 F F F
 Cu            16.45258139       8.55824218      22.77255483       0.00000000       0.00000000       0.00000000      -0.00249910       0.00219860       0.00135065      -2.90745365 F F F
 Cu            15.72131600       8.83221270       9.64799917       0.00000000       0.00000000       0.00000000       0.00110207      -0.00217090       0.00208552      -3.67850350 F F F
 Ni            14.33579994      15.26269262       7.56615742       0.00000000       0.00000000       0.00000000       0.00069812      -0.00272477      -0.00239822      -6.14904170 F F F
 Ni            11.30038113      10.46194559      13.52547650       0.00000000       0.00000000       0.00000000       0.00171693       0.00013137      -0.00009791      -6.31493526 F F F