     480
 Properties=species:S:1:pos:R:3:velocities:R:3:forces:R:3:local_energy:R:1:fix_atoms:S:3 Lattice="31.6575874013       0.0000000000    0.0000000000    0.0000000000   31.4396548309    0.0000000000    0.0000000000    0.0000000000   31.8225730859" temperature=0.00000000 pressure=1.56954063 time_step=1.0000 time=69.000000 energy=-2257.581321 energy_soap=-746.25845789  energy_2b=-1076.23261336 energy_3b=0.00000000 energy_core_pot=0.00000000 energy_vdw=0.00000000 energy_exp=0.00000000 energy_xps=0.00000000 virial="0.23530019           -0.44623775      0.19299946     -0.44623775      0.66292307     -0.13587098      0.19299946     -0.13587098     -0.80513942" stress="-0.00000743           0.00001409     -0.00000609      0.00001409     -0.00002093      0.00000429     -0.00000609      0.00000429      0.00002542" volume=31673.122212 step=69
 Cu            12.22164074       6.72651715      14.86071526       0.00000000       0.00000000       0.00000000       0.00159607       0.00012678      -0.00096416      -3.01917566 F F F
 Cu            13.16353820      12.81525899      20.02798521       0.00000000       0.00000000       0.00000000       0.00111496      -0.00004606       0.00020409      -4.15234222 F F F
 Ni            12.06009527       9.16110398      14.76441998       0.00000000       0.00000000       0.00000000      -0.00360594       0.00021151       0.00174529      -6.15339403 F F F
 Ni            11.45819490       8.02286549      16.74465579       0.00000000       0.00000000       0.00000000       0.00148860      -0.00148928       0.00056493      -5.49934870 F F F
 Cu             9.44592763      22.15535547      19.54981756       0.00000000       0.00000000       0.00000000      -0.00005490       0.00190778      -0.00144688      -3.29154286 F F F
 Ni            19.29039367      10.90554236      18.91868294       0.00000000       0.00000000       0.00000000       0.00070799      -0.00034132       0.00005786      -6.64907082 F F F
 Ni            16.94747318       8.37764481      21.28038450       0.00000000       0.00000000       0.00000000       0.00089972      -0.00083139      -0.00087848      -5.86648358 F F F
 Cu            21.16394515      20.41906483      22.81805389       0.00000000       0.00000000       0.00000000      -0.00015749      -0.00088570       0.00051820      -3.03459163 F F F
 Cu            18.58705375      19.21700599      19.27433092       0.00000000       0.00000000       0.00000000      -0.00055650       0.00086926      -0.00058242      -4.09000708 F F F
 Cu            18.28908727      17.43258159      25.48389485       0.00000000       0.00000000       0.00000000      -0.00189500      -0.00111480      -0.00123699      -2.71190606 F F F
 Cu            22.44810780      12.83179194       9.36770671       0.00000000       0.00000000       0.00000000      -0.00055081       0.00053099      -0.00018073      -3.02225206 F F F
 Ni            16.01549256      23.28134905      15.39830440       0.00000000       0.00000000       0.00000000       0.00066267       0.00080029      -0.00034386      -6.29765230 F F F
 Ni            10.60868357      19.84491817      19.34224461       0.00000000       0.00000000       0.00000000      -0.00178224      -0.00040096       0.00155659      -6.29128127 F F F
 Cu            20.05297937       8.68344956      11.22212636       0.00000000       0.00000000       0.00000000       0.00023921       0.00056442      -0.00060078      -3.28452274 F F F
 Cu             9.04812862      13.38131780      10.88728837       0.00000000       0.00000000       0.00000000       0.00016559      -0.00069494       0.00092636      -3.46152064 F F F
 Ni            23.51582456      15.66922765      13.88972362       0.00000000       0.00000000       0.00000000      -0.00030272      -0.00015723      -0.00022287      -6.10293682 F F F
 Cu            11.11481882       9.42436493      18.76168796       0.00000000       0.00000000       0.00000000       0.00179109      -0.00191733      -0.00043934      -3.83560979 F F F
 Ni            21.02796889       9.76892533      14.47201519       0.00000000       0.00000000       0.00000000       0.00071599       0.00065040      -0.00037862      -6.10484579 F F F
 Cu            22.82293874      11.16823790      21.88469008       0.00000000       0.00000000       0.00000000       0.00000669      -0.00203229       0.00029832      -3.01509034 F F F
 Ni             7.72232079      22.26430829      14.92164261       0.00000000       0.00000000       0.00000000       0.00005209       0.00054739      -0.00151738      -5.38732073 F F F
 Cu            12.00296425      11.34180547      23.82829923       0.00000000       0.00000000       0.00000000       0.00161335      -0.00237173      -0.00075047      -3.04690492 F F F
 Cu            13.91375845      17.82867195      22.07201005       0.00000000       0.00000000       0.00000000      -0.00105902       0.00115722      -0.00063047      -3.88305040 F F F
 Cu             9.31203187      19.43474147       8.77816851       0.00000000       0.00000000       0.00000000      -0.00121818      -0.00008411       0.00155409      -3.29467929 F F F
 Cu            22.47204636       9.79686133      12.54279247       0.00000000       0.00000000       0.00000000       0.00015253       0.00046064      -0.00025858      -3.30887750 F F F
 Ni            11.38873783      16.65445055      10.41221956       0.00000000       0.00000000       0.00000000      -0.00001198       0.00122144       0.00056661      -6.47554853 F F F
 Ni            23.24074204      17.48205782      19.48836571       0.00000000       0.00000000       0.00000000      -0.00064263      -0.00096381       0.00024985      -5.95806795 F F F
 Ni             7.81232021      18.62652905      13.71911962       0.00000000       0.00000000       0.00000000      -0.00137490      -0.00038134       0.00008339      -6.07787343 F F F
 Cu            16.37476258      25.50788222      16.24416835       0.00000000       0.00000000       0.00000000       0.00125711       0.00080835      -0.00027232      -3.05837008 F F F
 Ni            18.86458208      11.26954717      10.47827470       0.00000000       0.00000000       0.00000000      -0.00034788       0.00041118      -0.00008264      -6.40711236 F F F
 Ni            14.37280114      20.18580776      21.59218481       0.00000000       0.00000000       0.00000000      -0.00049568       0.00130581      -0.00078948      -6.27482427 F F F
 Cu            13.49375144       9.61526614      22.87878272       0.00000000       0.00000000       0.00000000       0.00098292      -0.00125063      -0.00069568      -3.23625003 F F F
 Cu            17.64948643      13.15416453      25.10103033       0.00000000       0.00000000       0.00000000      -0.00015212      -0.00096282      -0.00137607      -3.13395184 F F F
 Ni             9.93686577      18.15941776      12.23998774       0.00000000       0.00000000       0.00000000      -0.00058352       0.00022751       0.00037294      -6.52482270 F F F
 Ni            20.93681748      17.62686246      10.61887436       0.00000000       0.00000000       0.00000000      -0.00060442       0.00013144       0.00028593      -6.22782341 F F F
 Cu             7.25622785      13.47243886      16.73128793       0.00000000       0.00000000       0.00000000       0.00009962      -0.00045154       0.00008291      -3.56794202 F F F
 Cu            22.06926855       8.53190696      16.50893749       0.00000000       0.00000000       0.00000000       0.00094890       0.00044142      -0.00069199      -3.42439568 F F F
 Ni            21.83496488      22.48811296      15.15094620       0.00000000       0.00000000       0.00000000       0.00106078       0.00016853       0.00060219      -5.76055634 F F F
 Ni            20.45916018      18.96073036      17.48223967       0.00000000       0.00000000       0.00000000       0.00024515       0.00030933      -0.00052585      -6.30045893 F F F
 Ni            18.08761192      22.06499647      16.35378402       0.00000000       0.00000000       0.00000000       0.00028330       0.00037932      -0.00003737      -6.39425839 F F F
 Ni            12.12632984      11.14955144       9.14093938       0.00000000       0.00000000       0.00000000       0.00018085       0.00005346       0.00035370      -5.57351524 F F F
 Cu            11.61013972       7.85957373      12.68433880       0.00000000       0.00000000       0.00000000       0.00139718      -0.00009395       0.00038535      -3.04090890 F F F
 Cu            18.32635063       6.86552847      19.78571300       0.00000000       0.00000000       0.00000000       0.00116411      -0.00049140      -0.00095731      -3.34848827 F F F
 Cu            23.07057516      13.76746858      22.32403642       0.00000000       0.00000000       0.00000000       0.00168281      -0.00612444       0.00583327      -3.25155589 F F F
 Cu             7.55127656      15.19012226      10.44818616       0.00000000       0.00000000       0.00000000       0.00024797      -0.00065392       0.00075999      -3.39155088 F F F
 Cu            17.17398789      20.33433974      12.39310643       0.00000000       0.00000000       0.00000000      -0.00034621       0.00073100      -0.00052130      -4.11504874 F F F
 Ni            15.98691901      13.40626332      21.19480340       0.00000000       0.00000000       0.00000000      -0.00092067      -0.00069489       0.00053485      -6.12973355 F F F
 Ni            11.66093882      23.16194217      19.86300166       0.00000000       0.00000000       0.00000000       0.00043915       0.00159899      -0.00105044      -5.33295864 F F F
 Ni            12.45434344      18.15725895      11.89351157       0.00000000       0.00000000       0.00000000      -0.00177776      -0.00014576      -0.00002025      -6.18695156 F F F
 Ni            18.26960134      13.55861747      15.07207091       0.00000000       0.00000000       0.00000000      -0.00014168       0.00017646       0.00037305      -6.02926566 F F F
 Cu            23.26989437      16.79622712       9.79256555       0.00000000       0.00000000       0.00000000      -0.00051799       0.00055560       0.00021442      -3.15637195 F F F
 Ni            16.72484161      14.50082931       7.50740488       0.00000000       0.00000000       0.00000000      -0.00056064       0.00078463       0.00058726      -5.78741495 F F F
 Ni            19.62274596      22.48314162      14.40073768       0.00000000       0.00000000       0.00000000       0.00039927       0.00066105       0.00014253      -6.33263930 F F F
 Ni            17.48482695      12.73980459      19.40835918       0.00000000       0.00000000       0.00000000       0.00010361      -0.00019585       0.00016252      -5.93142603 F F F
 Ni            10.26186667      15.97543344      22.03273778       0.00000000       0.00000000       0.00000000      -0.00084783       0.00045426       0.00170140      -6.16633207 F F F
 Ni            13.93025968      18.95949647       6.85390232       0.00000000       0.00000000       0.00000000      -0.00472056       0.00106553      -0.00244956      -5.28650636 F F F
 Ni            10.67533660      15.08724902      14.81526279       0.00000000       0.00000000       0.00000000      -0.00096297      -0.00027589       0.00092616      -6.29413040 F F F
 Ni            10.53603542      17.23586190       8.21301998       0.00000000       0.00000000       0.00000000      -0.00049316      -0.00028475       0.00104898      -5.89226437 F F F
 Ni            15.18084410       9.36080388      17.95460620       0.00000000       0.00000000       0.00000000       0.00135242      -0.00051498      -0.00029178      -6.53436411 F F F
 Cu            17.91685716      15.06884443      18.99837445       0.00000000       0.00000000       0.00000000      -0.00041761      -0.00026733      -0.00027313      -4.04334390 F F F
 Ni            10.32772238      13.63322981      12.92364411       0.00000000       0.00000000       0.00000000      -0.00071686      -0.00071976       0.00152313      -6.14884591 F F F
 Ni            15.96641779      12.72929360      11.92483327       0.00000000       0.00000000       0.00000000      -0.00079960      -0.00009997       0.00078053      -6.19962164 F F F
 Cu            12.89730355      21.12487776      19.78794476       0.00000000       0.00000000       0.00000000       0.00009819       0.00133220      -0.00153263      -3.85983024 F F F
 Ni            12.83529168      11.46111847      15.26618383       0.00000000       0.00000000       0.00000000      -0.00069946       0.00032663       0.00230553      -5.96920583 F F F
 Ni             9.43233526      12.97048037      15.12475347       0.00000000       0.00000000       0.00000000       0.00004219      -0.00091532       0.00246529      -6.46980701 F F F
 Ni             9.50545183      13.98463958      21.09836792       0.00000000       0.00000000       0.00000000       0.00090499      -0.00068470      -0.00107810      -5.99630464 F F F
 Ni            20.19329518      17.46058117      12.86811733       0.00000000       0.00000000       0.00000000      -0.00159016       0.00038703       0.00063301      -6.26978545 F F F
 Cu            12.34574788      12.76391707       7.25117025       0.00000000       0.00000000       0.00000000      -0.00008943       0.00003894       0.00061379      -3.15576465 F F F
 Cu             7.74840722      21.77247368      11.66436025       0.00000000       0.00000000       0.00000000      -0.00069636      -0.00014128       0.00070584      -2.65599945 F F F
 Ni            21.41039000      10.84254794      10.62873816       0.00000000       0.00000000       0.00000000      -0.00020822       0.00010625      -0.00041151      -5.45175845 F F F
 Ni            17.41965644      21.68478849       8.58973640       0.00000000       0.00000000       0.00000000      -0.00110957      -0.00029839       0.00041776      -5.61144447 F F F
 Ni            25.05560101      18.03505787      17.65570503       0.00000000       0.00000000       0.00000000      -0.00005253      -0.00174971       0.00121166      -5.67873164 F F F
 Ni            16.32034696       7.34449218      17.21350610       0.00000000       0.00000000       0.00000000       0.00119737      -0.00067594      -0.00042534      -6.16038499 F F F
 Cu            21.34258638      22.42310616      19.29195801       0.00000000       0.00000000       0.00000000       0.00059014      -0.00038046       0.00048984      -3.28165673 F F F
 Cu             8.17324579      13.76921703       8.48505648       0.00000000       0.00000000       0.00000000       0.00001051      -0.00067910       0.00117931      -2.69310741 F F F
 Ni            14.28058132      19.29765041      16.26777357       0.00000000       0.00000000       0.00000000      -0.00014375       0.00081863       0.00020831      -5.95928958 F F F
 Ni             6.66828257      16.57493156      14.20272430       0.00000000       0.00000000       0.00000000      -0.00123460      -0.00010796       0.00018128      -5.83630052 F F F
 Cu            18.48087514      20.23335338       6.88314010       0.00000000       0.00000000       0.00000000      -0.00153357       0.00015008       0.00026399      -2.93473817 F F F
 Ni            12.98438120      13.24114950       9.53036882       0.00000000       0.00000000       0.00000000      -0.00067562       0.00004224       0.00083997      -6.07955470 F F F
 Ni            14.34860970      15.16549515      16.99764439       0.00000000       0.00000000       0.00000000      -0.00034864       0.00004833       0.00025403      -6.18308361 F F F
 Cu            19.81143120      19.11817297      24.38045345       0.00000000       0.00000000       0.00000000      -0.00103044      -0.00111083      -0.00003274      -3.19424912 F F F
 Cu             8.65521569      22.58462582      17.21228802       0.00000000       0.00000000       0.00000000       0.00049364       0.00098931      -0.00165907      -3.04744200 F F F
 Cu             6.04020087      14.31748918      14.55957514       0.00000000       0.00000000       0.00000000       0.00027431      -0.00167036      -0.00043005      -2.95395754 F F F
 Cu             9.68325812      23.82929245      15.25775988       0.00000000       0.00000000       0.00000000       0.00049052       0.00019691      -0.00139590      -3.21771722 F F F
 Cu             5.80605182      18.69161929      15.08017855       0.00000000       0.00000000       0.00000000      -0.00107799       0.00037366      -0.00035196      -3.19145072 F F F
 Ni            20.38024121      20.29894018      20.55090857       0.00000000       0.00000000       0.00000000       0.00006185       0.00034969      -0.00001736      -6.18143569 F F F
 Ni            17.48277978      12.74522260       9.15223705       0.00000000       0.00000000       0.00000000      -0.00076932       0.00056427       0.00053879      -6.05031973 F F F
 Ni            15.49289201      21.21262084      13.91365324       0.00000000       0.00000000       0.00000000      -0.00029448       0.00068184       0.00014201      -6.08926465 F F F
 Ni            10.28457076      19.30338337      17.06759845       0.00000000       0.00000000       0.00000000      -0.00016532       0.00034176      -0.00181909      -6.25077691 F F F
 Ni             9.04459883      17.97540757      18.61057784       0.00000000       0.00000000       0.00000000       0.00002015       0.00051548      -0.00080745      -6.31152774 F F F
 Cu            15.41816701      14.40374396       5.52260428       0.00000000       0.00000000       0.00000000      -0.00100654       0.00049298       0.00074382      -2.78978907 F F F
 Cu            15.27052172      13.24745129      25.55131272       0.00000000       0.00000000       0.00000000       0.00089035      -0.00008722       0.00070205      -3.01628698 F F F
 Cu             7.68816145      19.28038881      11.32803151       0.00000000       0.00000000       0.00000000       0.00020449      -0.00014106       0.00007280      -3.63329054 F F F
 Ni            18.78283286      17.15861220      18.06911458       0.00000000       0.00000000       0.00000000      -0.00039737       0.00037590      -0.00019346      -6.16347584 F F F
 Cu             5.72228135      18.13028684      12.52536431       0.00000000       0.00000000       0.00000000      -0.00043793      -0.00039838      -0.00015825      -3.02391921 F F F
 Cu            14.02466647      21.86200282      15.88317066       0.00000000       0.00000000       0.00000000       0.00068144       0.00084568       0.00003572      -4.01394428 F F F
 Ni            22.16149977      14.20550257      12.32527440       0.00000000       0.00000000       0.00000000      -0.00019587       0.00027059      -0.00052882      -6.47003587 F F F
 Ni            20.54761634      16.84638360      24.35735996       0.00000000       0.00000000       0.00000000       0.00034750      -0.00101336      -0.00074188      -5.48925179 F F F
 Cu            17.23072486      12.05402519      22.74174831       0.00000000       0.00000000       0.00000000       0.00002191      -0.00101695      -0.00015874      -3.73875238 F F F
 Cu            26.41511637      17.86213211      15.51341779       0.00000000       0.00000000       0.00000000       0.00091262      -0.00293871       0.00175016      -2.67540241 F F F
 Ni            21.46690623      16.65175250      18.17623891       0.00000000       0.00000000       0.00000000      -0.00086983       0.00011112       0.00007248      -6.14856757 F F F
 Ni             8.87495344      10.43365728      18.85881750       0.00000000       0.00000000       0.00000000       0.00208930      -0.00059904      -0.00022247      -5.35923074 F F F
 Cu            11.80870521      25.16567362      15.86670353       0.00000000       0.00000000       0.00000000       0.00110732       0.00060019      -0.00120935      -3.14610610 F F F
 Ni            14.90863237      14.02106966      23.31277971       0.00000000       0.00000000       0.00000000       0.00017912      -0.00019454       0.00181272      -6.45712763 F F F
 Ni            16.29269820      10.60328123      13.76821781       0.00000000       0.00000000       0.00000000      -0.00136399      -0.00090026       0.00093580      -6.08779295 F F F
 Cu            15.76627368      17.77915949      25.42623197       0.00000000       0.00000000       0.00000000      -0.00254896      -0.00136020      -0.00113894      -3.20328389 F F F
 Cu            14.07943330      23.75269662      20.10202641       0.00000000       0.00000000       0.00000000       0.00079578       0.00158737      -0.00082762      -3.54723282 F F F
 Ni             8.90435196      11.80102529      12.65923587       0.00000000       0.00000000       0.00000000       0.00025523      -0.00139808       0.00003374      -5.64319306 F F F
 Ni            12.71851009      23.12484560      12.05835078       0.00000000       0.00000000       0.00000000       0.00032227       0.00066302       0.00060336      -6.01233027 F F F
 Cu            17.84754550       7.36501182      11.46839029       0.00000000       0.00000000       0.00000000       0.00025952       0.00008426      -0.00024945      -3.08280858 F F F
 Ni            22.37237296      18.83571346      21.34490749       0.00000000       0.00000000       0.00000000      -0.00088832       0.00039011      -0.00066078      -5.89360971 F F F
 Ni            18.46275503      19.17942773      21.71611416       0.00000000       0.00000000       0.00000000      -0.00111454      -0.00009297      -0.00098937      -6.42209208 F F F
 Cu             5.91112824      15.39823742      12.24864334       0.00000000       0.00000000       0.00000000      -0.00049831      -0.00076850       0.00012609      -3.01716691 F F F
 Ni            19.41088201      11.71495315      21.33180643       0.00000000       0.00000000       0.00000000       0.00185690      -0.00064578       0.00017811      -6.56638487 F F F
 Cu            15.60685024      25.77417967      11.95267386       0.00000000       0.00000000       0.00000000       0.00127416      -0.00011002      -0.00091631      -2.78555402 F F F
 Cu            16.30706488      12.21253563       7.03096268       0.00000000       0.00000000       0.00000000      -0.00058297       0.00005777       0.00018795      -3.42743212 F F F
 Ni            10.96338454      11.50870506      13.88385707       0.00000000       0.00000000       0.00000000      -0.00039868      -0.00042675       0.00068197      -6.31655789 F F F
 Cu            12.22861891      15.56123015      12.61888229       0.00000000       0.00000000       0.00000000      -0.00023762      -0.00043197       0.00074231      -4.23503957 F F F
 Ni            16.25608485      13.32151885      17.12340765       0.00000000       0.00000000       0.00000000       0.00010648      -0.00036837       0.00050642      -6.43071360 F F F
 Cu            13.38663111      18.93195371      14.17268168       0.00000000       0.00000000       0.00000000      -0.00063760      -0.00007142       0.00174231      -3.67723163 F F F
 Cu            18.03101922      11.99976385      13.05161994       0.00000000       0.00000000       0.00000000      -0.00004483      -0.00035361       0.00043744      -4.21964981 F F F
 Ni            18.60658853      16.96350884      20.87106888       0.00000000       0.00000000       0.00000000      -0.00055730       0.00009012      -0.00091863      -6.16261813 F F F
 Cu            16.62679619      15.46041175      25.33324866       0.00000000       0.00000000       0.00000000      -0.00086442      -0.00098956      -0.00168948      -3.28788843 F F F
 Ni            13.06901611      15.24047398      19.03017984       0.00000000       0.00000000       0.00000000      -0.00013171      -0.00022886       0.00091639      -6.24205972 F F F
 Ni            12.25263123      20.82125400      11.39511137       0.00000000       0.00000000       0.00000000       0.00028197       0.00044565       0.00072481      -6.28322808 F F F
 Ni            10.16813951      17.90573848      20.67329597       0.00000000       0.00000000       0.00000000      -0.00183071       0.00013354       0.00027930      -6.43131693 F F F
 Ni            18.27092660      15.23003549      16.62158779       0.00000000       0.00000000       0.00000000      -0.00028711       0.00002445      -0.00005936      -6.03352186 F F F
 Cu            14.72370924       7.67373699      21.95563585       0.00000000       0.00000000       0.00000000       0.00158486      -0.00111323      -0.00050654      -3.15839053 F F F
 Ni            13.02207011       9.84928731      16.93898630       0.00000000       0.00000000       0.00000000      -0.00121669      -0.00070268       0.00022229      -6.23369651 F F F
 Cu            23.54049150      22.60197917      13.44513146       0.00000000       0.00000000       0.00000000       0.00055238      -0.00109924       0.00012776      -2.87853886 F F F
 Ni            22.43903326      16.61040703      12.07042599       0.00000000       0.00000000       0.00000000      -0.00009057       0.00014047       0.00023185      -6.38626420 F F F
 Cu            18.17232668       9.09068883      16.88677620       0.00000000       0.00000000       0.00000000       0.00161589       0.00003610      -0.00064968      -3.69136774 F F F
 Ni            14.48414397      11.68782993      23.89268980       0.00000000       0.00000000       0.00000000       0.00307048      -0.00067085      -0.00119685      -5.72002717 F F F
 Ni            15.05246664       9.51059822      20.41100142       0.00000000       0.00000000       0.00000000       0.00202134      -0.00139534      -0.00100568      -6.48691907 F F F
 Cu            21.93196979      21.15004466      17.22830367       0.00000000       0.00000000       0.00000000       0.00023926       0.00035973       0.00056948      -3.61098919 F F F
 Ni            20.10128861      15.39181711      11.64105919       0.00000000       0.00000000       0.00000000      -0.00111848       0.00011403       0.00021489      -6.49347265 F F F
 Ni            20.11326771      15.57763575      19.84802810       0.00000000       0.00000000       0.00000000      -0.00053601      -0.00032112      -0.00035452      -6.02195147 F F F
 Ni            17.60784588       9.78115175      11.95618618       0.00000000       0.00000000       0.00000000      -0.00036780       0.00009628       0.00032987      -6.25653408 F F F
 Ni            15.15126930      19.20085314      23.64088268       0.00000000       0.00000000       0.00000000      -0.00149726       0.00059774      -0.00019155      -5.89755024 F F F
 Ni            15.49921244      22.91711142      17.76205050       0.00000000       0.00000000       0.00000000       0.00077765       0.00113713      -0.00010624      -6.10074863 F F F
 Cu            18.21514263      10.84297238       7.94184383       0.00000000       0.00000000       0.00000000      -0.00031979       0.00021222       0.00003426      -2.96953277 F F F
 Cu            14.70541644      16.58071730       6.61253704       0.00000000       0.00000000       0.00000000      -0.00051101      -0.00066135       0.00080236      -3.65711829 F F F
 Ni            19.03634995      16.82462452       9.47181993       0.00000000       0.00000000       0.00000000       0.00106627       0.00018170       0.00044629      -6.23426883 F F F
 Cu            14.09855303      24.48256936      16.44686197       0.00000000       0.00000000       0.00000000       0.00131816       0.00107102      -0.00031134      -3.58488230 F F F
 Cu            11.33334706      19.80301661      13.29271308       0.00000000       0.00000000       0.00000000      -0.00005579      -0.00015620       0.00074450      -3.66146368 F F F
 Ni            18.49413928       9.60880484      14.30631256       0.00000000       0.00000000       0.00000000       0.00021383       0.00038000      -0.00037665      -6.48243399 F F F
 Cu            13.62251933       6.34511628      20.22347853       0.00000000       0.00000000       0.00000000       0.00145150      -0.00161381      -0.00078273      -2.70429048 F F F
 Ni            12.92243609      22.51396578       9.81665340       0.00000000       0.00000000       0.00000000      -0.00090116      -0.00029892      -0.00006790      -5.78195206 F F F
 Cu             6.48700193      21.38559187      16.97612480       0.00000000       0.00000000       0.00000000      -0.00024611       0.00245240      -0.00163041      -2.81080383 F F F
 Cu             9.85215529      11.06573656      10.38633267       0.00000000       0.00000000       0.00000000       0.00002276      -0.00086477       0.00005607      -3.10167251 F F F
 Cu             7.06737495      12.15064353      18.79419123       0.00000000       0.00000000       0.00000000       0.00131206      -0.00137890      -0.00090395      -2.98928439 F F F
 Cu            23.90551435      14.42262001      10.57250874       0.00000000       0.00000000       0.00000000      -0.00055663       0.00010466      -0.00079776      -2.98938611 F F F
 Cu            17.36321674      16.09486279       5.69081637       0.00000000       0.00000000       0.00000000      -0.00120226       0.00070609       0.00246398      -2.91903753 F F F
 Cu            22.16783484      14.20702621      19.27775515       0.00000000       0.00000000       0.00000000       0.00029018       0.00092910      -0.00088122      -4.40449237 F F F
 Cu            19.43899929       7.59071276      13.31262585       0.00000000       0.00000000       0.00000000       0.00067925       0.00042563      -0.00050323      -3.41777036 F F F
 Ni            18.24781614      13.62670629      11.26709311       0.00000000       0.00000000       0.00000000      -0.00029916       0.00040608      -0.00152509      -6.27161981 F F F
 Ni            13.05564270      15.67084525      14.92093154       0.00000000       0.00000000       0.00000000      -0.00040478       0.00006669       0.00095438      -6.25061679 F F F