     480
 Properties=species:S:1:pos:R:3:velocities:R:3:forces:R:3:local_energy:R:1:fix_atoms:S:3 Lattice="31.6575874013       0.0000000000    0.0000000000    0.0000000000   31.4396548309    0.0000000000    0.0000000000    0.0000000000   31.8225730859" temperature=0.00000000 pressure=3.96100961 time_step=1.0000 time=47.000000 energy=-2257.887188 energy_soap=-752.23978649  energy_2b=-1070.55715188 energy_3b=0.00000000 energy_core_pot=0.00000000 energy_vdw=0.00000000 energy_exp=0.00000000 energy_xps=0.00000000 virial="1.22494520           -0.40970048     -0.71899327     -0.40970048     -2.45460315     -0.74929943     -0.71899327     -0.74929943      1.46457127" stress="-0.00003867           0.00001294      0.00002270      0.00001294      0.00007750      0.00002366      0.00002270      0.00002366     -0.00004624" volume=31673.122212 step=47
 Cu            22.78040499      23.48150899      17.05624869       0.00000000       0.00000000       0.00000000       0.00028522      -0.00411461       0.00062098      -2.82923099 F F F
 Cu            11.65086991      21.96141759      13.39857281       0.00000000       0.00000000       0.00000000      -0.00134895      -0.00098194       0.00182277      -3.81494254 F F F
 Ni            18.95803509      19.30907271      18.43927297       0.00000000       0.00000000       0.00000000      -0.00214572      -0.00267238       0.00068319      -6.09540203 F F F
 Ni            23.76442537      13.34191503      13.93827913       0.00000000       0.00000000       0.00000000       0.00032521       0.00178955      -0.00509119      -6.08130076 F F F
 Cu            10.80946010      15.82499009      12.61317933       0.00000000       0.00000000       0.00000000       0.00053335      -0.00201507      -0.00150263      -4.12013285 F F F
 Ni            17.44041992      19.41547634      12.24937556       0.00000000       0.00000000       0.00000000       0.00148107      -0.00130559       0.00218010      -6.15971531 F F F
 Ni            10.74608169      20.16706746      16.72506123       0.00000000       0.00000000       0.00000000      -0.00139811      -0.00273871       0.00088587      -6.21880518 F F F
 Cu            21.63383410       8.70403681      19.53473430       0.00000000       0.00000000       0.00000000       0.00094600      -0.00032307       0.00038820      -3.48500836 F F F
 Cu            12.23221769      10.44055663       9.68748223       0.00000000       0.00000000       0.00000000       0.00262209       0.00277893      -0.00010920      -3.36916083 F F F
 Cu            10.82498310      18.81254661      24.00424763       0.00000000       0.00000000       0.00000000      -0.00231131       0.00119672      -0.00094062      -3.01167734 F F F
 Cu            20.80973336      23.70835111      18.56761440       0.00000000       0.00000000       0.00000000       0.00110051      -0.00571852       0.00230307      -3.14408824 F F F
 Ni            12.66969673      14.33465182       6.73559852       0.00000000       0.00000000       0.00000000       0.00080938       0.00173309      -0.00049110      -5.13509730 F F F
 Ni            12.00454284      16.28046926      19.53954266       0.00000000       0.00000000       0.00000000      -0.00197938       0.00108019       0.00107643      -6.35706021 F F F
 Cu            13.64617064      12.59612955      13.69704624       0.00000000       0.00000000       0.00000000      -0.00149794      -0.00076206       0.00073733      -4.09475550 F F F
 Cu            13.80188011      17.06717949      18.12729441       0.00000000       0.00000000       0.00000000      -0.00060399      -0.00114882      -0.00011868      -3.76003966 F F F
 Ni            17.72336862      11.64748788      20.41627689       0.00000000       0.00000000       0.00000000      -0.00003807       0.00223216       0.00098700      -6.35464288 F F F
 Cu             9.93810688      12.63511762      19.15337024       0.00000000       0.00000000       0.00000000      -0.00064815      -0.00030386       0.00074518      -3.96379580 F F F
 Ni            10.34485587      15.37365543      21.02802296       0.00000000       0.00000000       0.00000000      -0.00269745       0.00164235       0.00018639      -6.06942724 F F F
 Cu            11.43234223      11.03724739      22.47515652       0.00000000       0.00000000       0.00000000      -0.00091016       0.00122445       0.00210462      -3.24046560 F F F
 Ni            17.47133152      18.61143573      20.25395567       0.00000000       0.00000000       0.00000000       0.00017358      -0.00293663       0.00110551      -6.21090183 F F F
 Cu            15.56073812      12.17828271      15.51151919       0.00000000       0.00000000       0.00000000      -0.00123829       0.00159619       0.00070862      -3.84867757 F F F
 Cu            15.12905272       7.88392988      22.11827300       0.00000000       0.00000000       0.00000000       0.00049693       0.00237635       0.00338194      -3.04625913 F F F
 Cu             8.45793516      13.02951900      15.36570806       0.00000000       0.00000000       0.00000000       0.00113445      -0.00325510       0.00000581      -3.89006428 F F F
 Cu            17.97379211      10.54933162      14.83641801       0.00000000       0.00000000       0.00000000      -0.00055995       0.00214502       0.00153848      -4.13585112 F F F
 Ni            12.80588157      19.73825509      13.43678020       0.00000000       0.00000000       0.00000000      -0.00080904      -0.00118690       0.00073328      -6.17329917 F F F
 Ni            16.43928176      19.60798101      18.33748543       0.00000000       0.00000000       0.00000000      -0.00114819      -0.00610067       0.00131479      -6.41335228 F F F
 Ni            10.65536104      17.82684517      11.08503613       0.00000000       0.00000000       0.00000000       0.00054283       0.00069977      -0.00109141      -6.29198041 F F F
 Cu            17.07259289      16.58093023      25.53789178       0.00000000       0.00000000       0.00000000      -0.00151049       0.00230160       0.00138919      -2.99380875 F F F
 Ni            19.84522707      18.50330970      15.11695454       0.00000000       0.00000000       0.00000000       0.00224466       0.00193206      -0.00427282      -6.07373916 F F F
 Ni            15.11749491       8.59279767      19.83778590       0.00000000       0.00000000       0.00000000       0.00016228       0.00182919       0.00343460      -5.90078289 F F F
 Cu            23.28381858      17.05118945      22.92627751       0.00000000       0.00000000       0.00000000       0.00158362      -0.00177587       0.00036289      -2.97020701 F F F
 Cu            20.82570585      21.29136071       9.29888127       0.00000000       0.00000000       0.00000000      -0.00722981      -0.00199538      -0.00782947      -3.03081092 F F F
 Ni            13.79588048      12.49219332      18.78017021       0.00000000       0.00000000       0.00000000      -0.00114227       0.00171892       0.00229736      -6.31255560 F F F
 Ni            12.96198052      23.31935622      14.98454397       0.00000000       0.00000000       0.00000000       0.00081973      -0.00159148       0.00147700      -6.00416516 F F F
 Cu            24.07184195      18.06015500      10.82405668       0.00000000       0.00000000       0.00000000       0.00565507       0.00049687      -0.00200625      -3.01797693 F F F
 Cu            19.86631080      11.04506015      11.18250320       0.00000000       0.00000000       0.00000000      -0.00117597       0.00248967      -0.00232644      -4.09328852 F F F
 Ni            23.52383381      13.60795327      18.27081004       0.00000000       0.00000000       0.00000000      -0.00181309      -0.00093434      -0.00345176      -6.34932830 F F F
 Ni            15.79228394       7.52636870      14.97691518       0.00000000       0.00000000       0.00000000       0.00117332       0.00194404       0.00347799      -5.84745060 F F F
 Ni            13.65279592      11.56891436      23.27343312       0.00000000       0.00000000       0.00000000      -0.00116758       0.00196228       0.00251218      -5.61241372 F F F
 Ni            15.67094367       8.76117980      17.62143143       0.00000000       0.00000000       0.00000000      -0.00044772       0.00336112       0.00345510      -6.49198435 F F F
 Cu            19.67973948       6.93884571      16.33588009       0.00000000       0.00000000       0.00000000       0.00090436       0.00186645       0.00157594      -3.15354663 F F F
 Cu            21.13547655      15.87978438       7.64587745       0.00000000       0.00000000       0.00000000       0.00125803       0.00407266      -0.00096601      -3.03139587 F F F
 Cu            13.08176541      14.59877288      17.39922317       0.00000000       0.00000000       0.00000000      -0.00030040       0.00090298       0.00102768      -3.88538463 F F F
 Cu            25.75610341      17.30858401      19.02728079       0.00000000       0.00000000       0.00000000       0.00116062      -0.00330865      -0.00110137      -3.12923098 F F F
 Cu            14.21767943       8.81838853      13.21056181       0.00000000       0.00000000       0.00000000       0.00007084       0.00065399       0.00351678      -4.06543423 F F F
 Ni            15.74714728      12.05316169      24.34071842       0.00000000       0.00000000       0.00000000      -0.00060871       0.00298774       0.00174091      -5.45699667 F F F
 Ni            12.97106944      22.94423620      19.73016867       0.00000000       0.00000000       0.00000000       0.00117123       0.00002318       0.00018118      -6.22429906 F F F
 Ni            13.11737418      13.07045608      11.06742431       0.00000000       0.00000000       0.00000000       0.00006839      -0.00084573      -0.00028114      -6.25338960 F F F
 Ni            23.64278496      17.63366664      18.07252950       0.00000000       0.00000000       0.00000000       0.00098599      -0.00421799      -0.00042438      -5.78987209 F F F
 Cu            16.98432058      16.40204614       6.51719736       0.00000000       0.00000000       0.00000000       0.00015685       0.00295935      -0.00175756      -3.26612125 F F F
 Ni            24.44515133      11.61790935      19.44887170       0.00000000       0.00000000       0.00000000      -0.00078044      -0.00079554      -0.00228005      -5.51351454 F F F
 Ni            22.30456711      16.91292598       9.62769073       0.00000000       0.00000000       0.00000000       0.00069909       0.00337355       0.00041606      -5.66069613 F F F
 Ni            23.41188742       9.72536433      18.59214408       0.00000000       0.00000000       0.00000000      -0.00013453      -0.00093741      -0.00233536      -5.48367707 F F F
 Ni            17.00079105      16.97421473      12.70245191       0.00000000       0.00000000       0.00000000      -0.00080912      -0.00031991      -0.00081245      -6.31016044 F F F
 Ni            18.43854640      14.75721717      13.67234572       0.00000000       0.00000000       0.00000000      -0.00069295       0.00105474       0.00015467      -6.44007850 F F F
 Ni            18.93065082      10.00201267      21.62616366       0.00000000       0.00000000       0.00000000      -0.00035453       0.00210117       0.00058234      -5.85645365 F F F
 Ni             9.49657945      11.40842258      16.90479460       0.00000000       0.00000000       0.00000000       0.00074303      -0.00160655       0.00088476      -6.38584657 F F F
 Ni            14.21006700      14.89825181      19.39264479       0.00000000       0.00000000       0.00000000      -0.00145631       0.00058275       0.00132159      -6.15269656 F F F
 Cu            13.66833507      19.76762756      24.60302214       0.00000000       0.00000000       0.00000000      -0.00386706       0.00029819      -0.00041518      -3.05614228 F F F
 Ni            20.39118302      11.26532091       8.59219653       0.00000000       0.00000000       0.00000000       0.00165936       0.00273135      -0.00244446      -5.39117507 F F F
 Ni            17.27274820      11.44102678       9.97824136       0.00000000       0.00000000       0.00000000       0.00109608       0.00198503       0.00128931      -6.16218818 F F F
 Cu             6.93528935      17.94184662      18.87641323       0.00000000       0.00000000       0.00000000      -0.00055456      -0.00047867      -0.00158596      -3.41586863 F F F
 Ni            19.65022447      17.14959354      17.34389317       0.00000000       0.00000000       0.00000000       0.00599373       0.00382526       0.00058818      -6.12881380 F F F
 Ni            15.77419458      18.00569269      16.59557483       0.00000000       0.00000000       0.00000000      -0.00009705      -0.00286682      -0.00089542      -6.21399293 F F F
 Ni            22.44147289      11.87005611      12.05501158       0.00000000       0.00000000       0.00000000       0.00136480       0.00310130      -0.00193551      -5.95009739 F F F
 Ni            10.89936022      18.14312878      13.40802895       0.00000000       0.00000000       0.00000000      -0.00057207      -0.00153517      -0.00045905      -6.20104545 F F F
 Cu            11.18692902      16.32516882       7.10270814       0.00000000       0.00000000       0.00000000      -0.00360056      -0.00318008       0.00539155      -2.96460590 F F F
 Cu             8.89075376      16.20009259       7.97819548       0.00000000       0.00000000       0.00000000      -0.00472623       0.00017479      -0.00173844      -2.83185022 F F F
 Ni            15.43123251      10.96886910      13.43845109       0.00000000       0.00000000       0.00000000      -0.00066758       0.00111753       0.00204806      -6.04923069 F F F
 Ni            18.53015465      23.49769113      17.29554387       0.00000000       0.00000000       0.00000000       0.00130559      -0.00463089       0.00198747      -6.13232832 F F F
 Ni            21.48885471      12.98999309      13.79629635       0.00000000       0.00000000       0.00000000       0.00003103       0.00139405      -0.00116944      -6.25818205 F F F
 Ni            11.19752837      21.30240529      20.57750315       0.00000000       0.00000000       0.00000000      -0.00213894       0.00223084      -0.00069529      -6.08663911 F F F
 Cu            10.13201169      13.07575176      21.61303219       0.00000000       0.00000000       0.00000000      -0.00080267       0.00144876       0.00049078      -3.43030524 F F F
 Cu            13.01024312      18.88810459       7.56339861       0.00000000       0.00000000       0.00000000      -0.00184295       0.00981505      -0.00267614      -3.47598084 F F F
 Ni            14.54162182      14.00240517      23.14314392       0.00000000       0.00000000       0.00000000      -0.00117142       0.00175795       0.00143708      -6.26895323 F F F
 Ni            19.01537728       9.39805422      12.99758904       0.00000000       0.00000000       0.00000000       0.00068515       0.00214250       0.00151353      -5.86918516 F F F
 Cu            18.04923619       9.23324608      10.67669658       0.00000000       0.00000000       0.00000000       0.00176076       0.00224023      -0.00032838      -3.67939503 F F F
 Ni             9.52606428      21.62589327      18.10385551       0.00000000       0.00000000       0.00000000      -0.00381561      -0.00109849      -0.00262690      -6.04958449 F F F
 Ni            20.07313645       9.17018766       9.42318518       0.00000000       0.00000000       0.00000000       0.00116144       0.00302550      -0.00201515      -4.66558460 F F F
 Cu            25.59942540      10.22350931      17.68268680       0.00000000       0.00000000       0.00000000       0.00137068      -0.00059558      -0.00066097      -2.77465245 F F F
 Cu            14.88962169      15.00308718       6.08436270       0.00000000       0.00000000       0.00000000       0.00188693       0.00588039       0.00060399      -2.84433829 F F F
 Cu            22.13884374      10.36934730      10.17098396       0.00000000       0.00000000       0.00000000      -0.00044219       0.00171245      -0.00093119      -3.21877485 F F F
 Cu             5.80309357      14.19007424      17.41419836       0.00000000       0.00000000       0.00000000      -0.00035848      -0.00032529      -0.00248134      -3.27169378 F F F
 Cu            17.73413339      21.14846991      19.86187608       0.00000000       0.00000000       0.00000000       0.00049455      -0.00310444      -0.00040386      -4.32764485 F F F
 Ni            15.26119792      17.90383889      24.36892903       0.00000000       0.00000000       0.00000000      -0.00249676       0.00100290       0.00076792      -5.82880035 F F F
 Ni             8.31545461      14.15140629      20.05003401       0.00000000       0.00000000       0.00000000      -0.00034846       0.00093052      -0.00130803      -5.79384021 F F F
 Ni            19.01959639      12.62761812      22.28479961       0.00000000       0.00000000       0.00000000       0.00009663       0.00277823      -0.00007280      -6.21907133 F F F
 Ni            20.41941896      11.56192325      15.43964466       0.00000000       0.00000000       0.00000000      -0.00090718       0.00111485      -0.00109439      -6.18791326 F F F
 Ni            18.00440468      18.86399396      16.44853000       0.00000000       0.00000000       0.00000000       0.00129677      -0.00219029      -0.00260200      -6.08129792 F F F
 Cu            17.36254155      18.97869802       6.90146350       0.00000000       0.00000000       0.00000000      -0.00091881       0.00289461      -0.00186450      -2.96585061 F F F
 Cu            25.31368693      11.40291792      15.40873744       0.00000000       0.00000000       0.00000000       0.00255246      -0.00191447      -0.00199228      -3.43841349 F F F
 Cu            19.27145617      19.39872526      24.14895942       0.00000000       0.00000000       0.00000000       0.00005648       0.00090289       0.00090245      -3.00329868 F F F
 Ni            14.53282898      21.22717679      18.47309567       0.00000000       0.00000000       0.00000000       0.00046902      -0.00196000       0.00000172      -6.12954073 F F F
 Cu            19.82473888      10.61127236      19.42448528       0.00000000       0.00000000       0.00000000       0.00064667       0.00175742       0.00067904      -3.95826659 F F F
 Cu            11.46033127      24.67350209      16.41125200       0.00000000       0.00000000       0.00000000       0.00097543      -0.00161481       0.00152779      -3.22491192 F F F
 Ni            24.50803539      20.10870731      15.06130533       0.00000000       0.00000000       0.00000000       0.00277464      -0.00180355       0.00068188      -5.40104540 F F F
 Ni            22.03672814      11.84693392      19.13575650       0.00000000       0.00000000       0.00000000      -0.00063346      -0.00116808      -0.00164988      -6.34074495 F F F
 Cu            25.59673399      16.71089409      12.38350531       0.00000000       0.00000000       0.00000000       0.00354122       0.00126148       0.00005624      -2.76974736 F F F
 Cu            16.03917968       7.73887846      10.74713496       0.00000000       0.00000000       0.00000000       0.00211607       0.00095339       0.00160252      -3.21508744 F F F
 Ni             9.94862759      19.64893262      19.21635806       0.00000000       0.00000000       0.00000000      -0.00193369       0.00102011      -0.00067737      -6.40595363 F F F
 Ni            21.10586327      15.97292564      23.25957338       0.00000000       0.00000000       0.00000000       0.00141935      -0.00038435       0.00037585      -5.92583479 F F F
 Cu            15.89873845      13.16324873      19.88402597       0.00000000       0.00000000       0.00000000      -0.00098223       0.00177344       0.00298247      -3.63814210 F F F
 Ni            18.92509902      21.45763765      12.75125977       0.00000000       0.00000000       0.00000000       0.00275330      -0.00189061      -0.00180887      -6.32771582 F F F
 Ni            11.47917654      13.37130166      12.91704866       0.00000000       0.00000000       0.00000000      -0.00057436      -0.00060493      -0.00049036      -6.20578558 F F F
 Cu            11.28881056       7.86297815      18.81534479       0.00000000       0.00000000       0.00000000      -0.00054665       0.00075610       0.00249149      -3.28537082 F F F
 Cu            10.15371328      11.80055600       9.13782986       0.00000000       0.00000000       0.00000000       0.00081934       0.00048306       0.00023273      -2.99020950 F F F
 Ni            22.42084473      15.62880078      21.24103943       0.00000000       0.00000000       0.00000000       0.00096274      -0.00214774       0.00046872      -6.07667055 F F F
 Ni            15.86813338      15.66834976       8.44506059       0.00000000       0.00000000       0.00000000      -0.00203001       0.00052154      -0.00336847      -6.25951526 F F F
 Cu            14.28771004      12.50881522       6.29614868       0.00000000       0.00000000       0.00000000       0.00799888       0.00462927      -0.00572492      -2.78158192 F F F
 Ni            23.81404159       9.41312923      16.29063121       0.00000000       0.00000000       0.00000000       0.00228525      -0.00091523      -0.00158098      -5.30906531 F F F
 Ni            13.74744229      16.98706581      20.76781723       0.00000000       0.00000000       0.00000000      -0.00103556      -0.00085210       0.00094390      -6.00682402 F F F
 Cu            16.68750247       8.95589336      13.15786307       0.00000000       0.00000000       0.00000000       0.00089095       0.00207225       0.00334026      -3.76646576 F F F
 Ni            11.75541428      10.75970336      13.42483651       0.00000000       0.00000000       0.00000000       0.00012942      -0.00184731      -0.00137093      -6.43099002 F F F
 Cu            22.83619347      14.47127588       8.91574125       0.00000000       0.00000000       0.00000000       0.00084966       0.00348631      -0.00119641      -3.07547665 F F F
 Cu            10.95681008      20.66631886       7.81702488       0.00000000       0.00000000       0.00000000      -0.00245952       0.00322593       0.00169212      -2.58296970 F F F
 Ni            22.27371968      13.19948750      16.10821230       0.00000000       0.00000000       0.00000000       0.00008852      -0.00032781      -0.00152484      -6.36309932 F F F
 Cu             9.42149553      22.99027650      13.94484255       0.00000000       0.00000000       0.00000000      -0.00055313      -0.00049662       0.00274487      -3.29853427 F F F
 Ni             9.58976362      11.92900459      13.36471390       0.00000000       0.00000000       0.00000000       0.00075418      -0.00264193      -0.00072290      -6.30952043 F F F
 Cu            19.05876783      14.83622160       6.48699506       0.00000000       0.00000000       0.00000000       0.00043701       0.00323387      -0.00111601      -2.76550043 F F F
 Cu            11.09651568      23.57413425      11.62016251       0.00000000       0.00000000       0.00000000      -0.00103859       0.00167490       0.00343724      -3.08439926 F F F
 Ni             9.92854739      18.13221716      15.93446143       0.00000000       0.00000000       0.00000000      -0.00179421      -0.00099556      -0.00161908      -6.40253340 F F F
 Cu            14.65837059       6.24526620      16.57919849       0.00000000       0.00000000       0.00000000       0.00202453       0.00226822       0.00414546      -2.92262708 F F F
 Ni            18.15546380       7.67717884      14.54333517       0.00000000       0.00000000       0.00000000       0.00067154       0.00116478       0.00190214      -5.84949791 F F F
 Ni            19.80762509      12.96249275      19.97955338       0.00000000       0.00000000       0.00000000      -0.00014257       0.00114487       0.00053154      -6.04867044 F F F
 Ni            14.78910018      22.26168970      16.13450825       0.00000000       0.00000000       0.00000000       0.00110359      -0.00260775      -0.00059882      -6.62960103 F F F
 Ni            16.75395452      11.00812987      17.30423069       0.00000000       0.00000000       0.00000000      -0.00004878       0.00201814       0.00210474      -6.30479811 F F F
 Cu            10.03807219       8.63359733      12.94529816       0.00000000       0.00000000       0.00000000       0.00265642      -0.00076517       0.00098791      -3.02424730 F F F
 Ni            14.12845359      16.38083971      22.94093989       0.00000000       0.00000000       0.00000000      -0.00239123       0.00107274       0.00163900      -6.13547015 F F F
 Cu            18.76112647      23.33699717      19.84789899       0.00000000       0.00000000       0.00000000       0.00131659      -0.00449750       0.00241506      -3.00862798 F F F
 Ni            21.13957900      15.18244529      17.10333694       0.00000000       0.00000000       0.00000000       0.00200737       0.00021760      -0.00055599      -6.18987501 F F F
 Cu            11.74976200      17.31090940      22.31258623       0.00000000       0.00000000       0.00000000      -0.00209710       0.00081505      -0.00007629      -3.84175092 F F F
 Ni            11.52517450       9.34732584      20.77721747       0.00000000       0.00000000       0.00000000      -0.00039147       0.00133150       0.00285193      -5.57877927 F F F
 Ni            13.54937488      10.52361601      14.88274259       0.00000000       0.00000000       0.00000000      -0.00207872       0.00085476       0.00292645      -6.21384750 F F F
 Cu            20.41345431       7.50591928      13.65150508       0.00000000       0.00000000       0.00000000       0.00114029       0.00235535       0.00074796      -3.14944994 F F F
 Ni            15.70669873      10.08431492      11.27702326       0.00000000       0.00000000       0.00000000       0.00059381       0.00026445       0.00206346      -6.21377260 F F F
 Ni            17.97882693      12.90962381      18.36186896       0.00000000       0.00000000       0.00000000       0.00083412       0.00144992       0.00083537      -6.27355633 F F F
 Ni            22.93213432      10.41406844      20.82083533       0.00000000       0.00000000       0.00000000      -0.00016163      -0.00019522      -0.00200534      -5.30307099 F F F
 Ni             9.28060616      17.54439316      18.12510797       0.00000000       0.00000000       0.00000000      -0.00033724       0.00029570      -0.00089667      -6.57822309 F F F
 Ni            18.60475448      17.86329959      10.98660632       0.00000000       0.00000000       0.00000000      -0.00178528      -0.00097530      -0.00155235      -6.27656448 F F F
 Cu            10.21987829      23.43787071      20.93232693       0.00000000       0.00000000       0.00000000      -0.00127526       0.00333918      -0.00164041      -3.06651916 F F F
 Cu            14.29084257      21.47389299      23.03494887       0.00000000       0.00000000       0.00000000      -0.00270849       0.00104991       0.00117428      -3.19543560 F F F
 Ni            10.86148172      22.41875989      15.85146951       0.00000000       0.00000000       0.00000000       0.00051783      -0.00209127       0.00301085      -6.14065604 F F F
 Cu            23.25434754      13.15080413      20.99131965       0.00000000       0.00000000       0.00000000       0.00022009      -0.00236862       0.00097323      -3.80552760 F F F
 Cu            13.61607851      16.51644759       7.36182061       0.00000000       0.00000000       0.00000000      -0.00292946       0.00817416      -0.00637124      -3.52814693 F F F
 Ni            20.05156462      21.36774309      18.84894559       0.00000000       0.00000000       0.00000000       0.00030649      -0.00358606       0.00058850      -6.14670219 F F F
 Cu            13.20525575      21.35058088       8.60250678       0.00000000       0.00000000       0.00000000      -0.00147502       0.00406941       0.00134297      -3.08977733 F F F
 Ni            21.56236077      12.71056281       9.99288981       0.00000000       0.00000000       0.00000000       0.00115531       0.00217644      -0.00225846      -5.86098912 F F F
 Cu            20.68953152      13.55947374       7.84862645       0.00000000       0.00000000       0.00000000       0.00170378       0.00315887      -0.00168559      -3.16755972 F F F
 Cu             7.17045136      21.89534520      17.42932589       0.00000000       0.00000000       0.00000000      -0.00203532       0.00043540      -0.00257886      -3.00480056 F F F
 Cu            24.76444730      15.37736296      21.69406148       0.00000000       0.00000000       0.00000000       0.00078944      -0.00208672      -0.00066614      -2.92565843 F F F
 Cu            23.03950692      20.40071997      10.51148883       0.00000000       0.00000000       0.00000000       0.00072429      -0.00121971      -0.00445614      -2.97517619 F F F
 Cu            15.97431346       9.57654207       8.96859747       0.00000000       0.00000000       0.00000000       0.00010911       0.00258651       0.00071264      -3.13276317 F F F
 Cu            12.82271417      17.54792273      24.61264886       0.00000000       0.00000000       0.00000000      -0.00245740       0.00026691       0.00113631      -2.97885134 F F F
 Cu             8.55857061      17.96766851       9.82195451       0.00000000       0.00000000       0.00000000      -0.00093808      -0.00035595      -0.00096211      -3.43679974 F F F
 Ni            20.58150850      22.34481592      16.61318427       0.00000000       0.00000000       0.00000000       0.00086507      -0.00492627       0.00122535      -6.04259143 F F F
 Ni            21.37288413      18.93817737      18.68692463       0.00000000       0.00000000       0.00000000      -0.00005745      -0.00435279       0.00085836      -6.44874862 F F F