      50
 Properties=species:S:1:pos:R:3:forces:R:3:local_energy:R:1 Lattice="22.1648869929       0.0000000000    0.0000000000    0.0000000000   21.2890766568    0.0000000000    0.0000000000    0.0000000000   21.9609565803" energy=-188.876086 virial="-18.18331841          3.03994380      6.17314726      3.03994380    -10.11866389     -8.13667584      6.17314726     -8.13667584     -6.34365390" stress="0.00175469           -0.00029335     -0.00059571     -0.00029335      0.00097645      0.00078519     -0.00059571      0.00078519      0.00061216" volume=10362.716105
 Cu             9.95515720      10.90113155       8.77606502       2.17961758      -0.00825307       3.10498134      -2.53132443
 Cu            11.17024188       7.00304733      13.40852805      -0.22990116       0.15683612       0.08085539      -2.91560295
 Cu            10.51537228      14.30456269      12.01882512       0.22154293      -0.64215542      -0.73466258      -2.60513718
 Cu            14.86857635      11.46687866       9.17714330      -2.16692922       0.83834456      -1.11955736      -2.83537405
 Cu             9.36676908       8.20620709       8.47591737       1.71230756       0.20541960      -0.88234612      -2.60329802
 Cu            11.74053537       8.69107105       9.76097241       1.07380771       0.67235563      -1.28495055      -3.22013297
 Cu             9.97022767       6.02833782       9.25760902       0.85397072       0.90230807       0.36560419      -2.39134812
 Cu             8.59942763      10.65481276       7.32567792      -2.58252576      -0.64816736      -2.98309254      -2.26315638
 Cu             9.87663139      13.88773928      14.38332250       0.81381939       0.17556087      -0.54242160      -2.30085978
 Cu             7.69879972       8.84794129       9.88238393       0.14986362       1.15044505       0.48887886      -3.00588932
 Cu            10.48572594       7.76005716      11.28906079      -2.26885144      -1.13048576      -0.91025902      -2.74312807
 Cu            12.05971518      11.73374315       7.79240306       1.69522839      -0.64713333       0.89180237      -2.93041475
 Cu             9.68302878       9.58155157      14.95641946      -2.37339640      -1.65645320       0.03292424      -2.65778620
 Cu            13.20225720       8.90588794       7.54182073      -4.75344156       0.95905860      -1.58304709      -2.15645802
 Cu             6.00000000      10.27839454      10.75739905      -2.87426710      -1.55160488      -1.73288739      -2.27503803
 Cu             8.69673348      11.13454989      11.90201379      -0.05972999      -0.42733749      -1.89205388      -3.34052939
 Cu            10.59323967      15.28907666       9.39664297      -0.22006668      -0.57794063       0.10797086      -2.34550745
 Cu            10.27254168       9.05449900       6.00000000      -0.11659259       0.54036572       1.58139825      -1.84936291
 Cu            13.70242466      14.22162827       8.84847084       0.01925516      -0.22792463      -0.66507395      -2.55378457
 Cu            16.16488699      10.31671990      10.39393246       0.15711470      -1.30284536       1.74340280      -2.03089317
 Ni            14.14896145       8.30611112      10.76342342       0.24395450       2.15260669       0.31883513      -5.16573001
 Ni            10.37783752      10.88534844      13.36594504      -0.75616157       3.60968966       1.61307148      -5.04920299
 Ni            12.99108559      14.14060533      14.13067524       0.06755273      -0.47347034      -0.14018246      -4.25746112
 Ni             7.05053064       9.25590313      12.22155927       1.56898123      -1.03464377       2.60490712      -4.29588801
 Ni            12.23958638       8.88665336      14.33753475      -0.21260959       0.76893849       0.21603391      -5.05165827
 Ni            14.74151120      10.21788444       7.27967764       1.68578535       1.58461517       0.04618418      -3.54262606
 Ni            15.17756638      10.20082637      13.09358969      -1.21279954       0.42981305      -1.30709171      -4.23519926
 Ni             7.53847213      13.97642167      10.10007807       1.41896310       1.95696365      -0.82921022      -4.24684729
 Ni             7.58513979       6.83958418      11.62219152      -0.51122731       1.71504338      -0.36118284      -4.64546499
 Ni            13.89643769      13.43729526      11.04547260      -1.12074745      -0.84220898       0.36969091      -4.81207934
 Ni            10.52316235      13.34203139       7.77698789      -0.76046252       0.16397918       0.96960472      -4.66442569
 Ni             6.86595634      12.10271720      10.49573404       1.73389490       1.25489500       2.88089854      -3.58027424
 Ni            11.37467241       9.49570639      12.23457126       2.86781204      -0.76708287      -1.54109983      -5.37607824
 Ni             8.91992233       8.21659742      13.18443574       0.52162121      -0.03009037      -1.01465982      -5.22407783
 Ni             7.34889818      11.02877544      13.73033059       0.54009585      -0.46997155      -0.01932810      -4.38746347
 Ni            13.63511285      10.97217681      11.34532696       0.36803893       0.19116469       0.10237886      -5.50600906
 Ni            11.20412622      11.63882597      10.60795942      -0.21506131      -2.03238721       1.88726079      -5.40116737
 Ni             6.71453700      11.61894942       8.49659421       0.40512046      -0.59965252      -2.08903332      -4.51097249
 Ni            11.75873108      12.17641970      15.10800242      -0.44970404       1.18444490       0.73081106      -4.85021264
 Ni            12.40625614      12.29351969      13.11765999       0.66160965      -0.72747811      -3.11998144      -5.35679527
 Ni            11.84293567       6.61615259       7.68705056      -0.20723587       0.81358996       1.60197158      -3.93950967
 Ni            12.71406151       6.70380101      11.20848558      -1.65214348      -1.91172760      -3.11644236      -4.63363746
 Ni            11.40924399      10.22173119      15.96095658       1.42003862       0.47046046       1.12808259      -4.01872457
 Ni            13.35271663       7.68456604      12.87495904       1.28709984       2.07769968       2.07196118      -4.62105854
 Ni             9.44883959       6.00000000      12.09594074       0.95693695      -1.39606312       0.62514583      -4.14528621
 Ni             8.17219899      13.44625546       7.69647468       0.12043084      -0.70126404       0.84145790      -4.47543837
 Ni            14.36990318       7.70283845       8.64510659       1.18114246      -2.49003300       2.01647596      -3.95839608
 Ni             9.52343130      11.94273438      15.41691989      -0.25612588      -1.68114020      -0.21829141      -4.54131765
 Ni            11.82646009      13.42470698       9.76406556       0.14991606       1.07530019      -0.56556483      -4.40585480
 Ni            15.13443823      12.69159761      12.75110072      -1.07554202      -1.07238355       0.22983039      -4.42220352
