      50
 Properties=species:S:1:pos:R:3:forces:R:3:local_energy:R:1 Lattice="21.3156806421       0.0000000000    0.0000000000    0.0000000000   21.7668122290    0.0000000000    0.0000000000    0.0000000000   20.8820880000" energy=-185.596984 virial="-9.94476057          -3.05830765      2.82671653     -3.05830765    -26.10554052      1.67966608      2.82671653      1.67966608      3.58330623" stress="0.00102642            0.00031566     -0.00029175      0.00031566      0.00269442     -0.00017336     -0.00029175     -0.00017336     -0.00036984" volume=9688.754628
 Cu            12.70216958      14.94589339      10.59499006      -0.84047014      -1.27701140      -0.03983325      -2.44847795
 Cu            12.23598938       7.76342110      11.15488826      -0.07220234       0.68291215      -2.33825451      -2.90737402
 Cu             8.81949526      12.19881326      13.52951248       1.23067390      -2.95298231       0.59494178      -2.91722823
 Cu            13.81783085       9.58246227      11.43731725      -0.39344438       0.96972785      -0.34940383      -3.12103118
 Cu            10.26444517      11.48266803       8.57403949      -3.99721972      -0.11886650      -0.55582088      -3.36698630
 Cu            15.31568064       8.14699551      10.12990930       1.64789315      -1.06689183       2.10594338      -2.37835807
 Cu             9.44363173       6.38221522       9.41835376      -0.24707006       0.63404729       1.02250862      -2.09997604
 Cu            10.54659068       6.85742547       7.47843107      -1.20302020      -0.26191931      -0.57987433      -2.24465705
 Cu             7.22006539       9.50005817      13.98555955      -0.77216833       0.92899980      -1.58475327      -2.14925528
 Cu            15.12787334      10.35582577       9.08684532       1.21818206       2.73982907       1.08305504      -2.62977239
 Cu             9.71121382      13.36334085      11.63680716       1.66481001       0.49437617       0.68033417      -3.44555636
 Cu             7.84678243      13.38287645       8.96954452      -3.72120005      -0.86365280      -4.81458742      -2.20262226
 Cu             8.17380227       7.16033616      12.30735026      -0.15589176       1.19925987      -0.35417469      -2.46890408
 Cu            11.60706145      13.55052208      14.11488263      -0.45410418      -1.36221258      -1.45386417      -2.18833903
 Cu             9.11050307       8.97969189      14.88208800       2.13471314       0.27897140      -1.04302832      -2.30837731
 Cu            14.30402336      10.92302783      13.60408902      -0.19607515      -0.31717364      -0.30436900      -2.41028272
 Cu            14.20747662      12.87874546       8.40890322      -0.18163364      -0.62388008      -4.03576966      -2.40142497
 Cu             6.26102279       9.97656095      10.73946914      -0.20199661      -1.35266424       2.81447444      -2.61786107
 Cu            10.71969395      10.49961513      12.81125103      -0.88561834      -0.74999334      -2.49218946      -3.08037867
 Cu            14.28044172      13.15937967      12.90987249      -1.29565546       0.16687341      -0.71507696      -2.27774016
 Ni            11.15551806      14.31861099       7.11237175      -0.27747469      -0.39321625       0.74366083      -4.36513841
 Ni            13.08013798       6.00000000      10.06413920       0.16333922       0.80383187      -0.36250497      -3.77611782
 Ni            11.61521303      12.30013450      10.25357760      -1.48713771       1.60428218      -2.02128354      -5.43302435
 Ni            11.42261154      10.42561368       6.00000000       0.39564043      -0.74754127       0.79375118      -4.58894863
 Ni            10.98121898      10.88260180      14.77952578       0.23679269       0.42949469       2.35299144      -3.88817864
 Ni            12.18694081      10.83657944       8.19152685       3.84102516      -1.42266283       0.12192092      -5.27148040
 Ni            14.59273755       7.92201052      12.63463004      -0.78673772      -0.49247881       0.18936096      -4.17798283
 Ni            11.19469673       8.57080929       8.95016299      -1.45532934       0.81944817       2.88185106      -4.82452349
 Ni            12.01356739       7.12135394      13.16831467       0.84012799      -0.29658356       1.63316999      -4.16019482
 Ni             7.34947578      13.96160508      10.82784471      -1.20295406       0.61792654       4.66511606      -4.29940564
 Ni             6.00000000      11.68694899       9.60822664       0.46769714       2.58253397      -0.78067350      -4.08343464
 Ni            13.82993001      12.87436751      10.37627170      -0.14967238      -0.51377081       4.65261871      -3.95120071
 Ni             8.76194828       9.77327621      12.01247097      -1.56488264      -0.31469409      -0.21075894      -5.14944289
 Ni            10.24193206       8.02263758      12.46369015      -0.54814564       1.25810299       0.20670380      -4.64245141
 Ni            10.43234554      15.76681223      10.96487699      -0.02325150      -1.25111795      -0.30924315      -3.75836896
 Ni             7.96488227       8.85579243       7.48321055       0.50593913       0.23403121       0.75922915      -4.47454658
 Ni            14.22021071      10.69188786       6.98133135      -1.45676226      -0.23293517       0.11338550      -4.50950306
 Ni             6.37732375      11.95638373      12.55074398       1.47677618       0.00892713      -0.94422301      -4.47914355
 Ni            12.37186128       8.11648021       7.33171154       2.34096974       0.95697538      -2.66061459      -4.24187900
 Ni            12.29109227      12.43845714       6.32743851       0.42183542      -0.11499894       0.61640411      -4.65879157
 Ni             9.89698269      13.64243273       9.29233735       3.47485766       1.73679142       1.00529650      -4.85755869
 Ni             6.80226415       8.11354624       9.56985112       0.84166119      -0.54636144      -0.39081855      -4.21356646
 Ni            13.82351352       8.75913797       8.84565052      -4.49660691      -0.97591195      -1.64902677      -4.62956044
 Ni             8.16821685      11.52851313       6.50050077       0.17801006       0.15353635       0.78694945      -4.23626681
 Ni             8.90643173      13.68725237       7.16393224       1.70136019      -0.26151613      -1.84306790      -4.16220140
 Ni             8.24212817       9.75839444       9.78800751       1.62161400      -0.52075907      -1.28926583      -5.04889146
 Ni            12.60342618       8.48752121      14.81314429       0.05163107       0.67049366      -0.85242672      -4.33104407
 Ni             8.04749083      14.16017562      13.09538674      -0.91907156       1.28060379      -0.67990037      -3.87350784
 Ni            12.55336823      11.44168416      11.88643753       2.23031151       0.20455042       2.70883292      -4.39042325
 Ni             8.41576579      11.91456636      10.41274101       0.29993573      -2.42473047       2.12230757      -5.45560323
