      50
 Properties=species:S:1:pos:R:3:forces:R:3:local_energy:R:1 Lattice="21.6050717051       0.0000000000    0.0000000000    0.0000000000   20.9631153445    0.0000000000    0.0000000000    0.0000000000   21.7186986565" energy=-174.408981 virial="-4.04391635          12.75482285     -6.81104406     12.75482285     -0.29498221     -2.10302648     -6.81104406     -2.10302648      8.45261164" stress="0.00041111           -0.00129667      0.00069242     -0.00129667      0.00002999      0.00021380      0.00069242      0.00021380     -0.00085930" volume=9836.607342
 Cu            11.96534642       9.72244857      11.48219979      -0.97462069      -0.74975149      -1.83609554      -3.11452541
 Cu             7.61336890       6.87605868      10.08701529       0.11655293      -1.68209489      -1.40312567      -2.56988699
 Cu            13.76864970       8.04900793       9.13372484       0.48535811       3.97918272      -2.87327276      -2.39677544
 Cu            11.51006595      12.53799761       7.16667790      -1.26434197       0.83071252       0.25192254      -2.66745027
 Cu             9.22329721       7.42609855      14.26867463       0.28017696      -0.14804531       0.54827294      -2.19057966
 Cu            13.53897978      11.76995570      14.60051093       0.05337471       0.19340726       0.41064108      -2.35694942
 Cu             7.94403228      14.09711829      12.04885263      -0.56538056       0.42050986       1.59178445      -2.39424744
 Cu             9.34625340      13.23871204      13.57762352       1.15767335      -0.98352510       0.29706724      -2.60737145
 Cu            10.78147843       6.20595092      11.52846267      -1.23169830      -1.82550946       1.51191584      -2.71827735
 Cu             6.61116020       9.43948198       8.34374026       0.96435130      -2.22874634      -4.95321616      -2.24699429
 Cu            12.24001448       6.00000000      13.33576193      -0.07468330       0.56264550       0.07205332      -1.69076101
 Cu             9.66022928      13.57105714       8.19883050       1.42144735       0.42827455       0.51722454      -2.82443805
 Cu            15.25067969      10.19776395       8.76826586      -1.07118151       0.54638215       0.45020652      -2.52847440
 Cu             8.78906375      10.52279373       8.11495224       0.51333702       1.48219535       1.91149077      -3.27267745
 Cu            11.40761467      10.51165215       6.31383680       3.30557710      -0.55373985       0.62071797      -2.55348800
 Cu            13.73772326      12.03968540       7.31879348       0.77563854      -1.01335208       1.43565610      -2.44537495
 Cu            10.20842611       8.58706805      12.62656775       0.85722387      -0.89298169      -0.92136274      -2.90130467
 Cu             7.80829063       8.08321530      11.85880097      -0.26192577      -0.83036656       6.36498365      -2.50441372
 Cu            11.39057016       9.66842724       8.83090702       0.17494262      -0.37776330      -0.42442449      -3.37396485
 Cu             9.83969170       9.29070180      15.71869866      -1.26756372       0.34530641      -0.25315611      -2.29192173
 Cu             9.59506495      11.80577382      11.28753967      -1.00353300      -0.49601250      -0.43244438      -3.30051774
 Cu            11.48527032      13.15361805      11.30425270       0.15357054      -0.29278604       0.02524826      -3.19842728
 Cu            11.74481319      14.39587205       9.08252436       0.29472812      -0.45239376       0.32658156      -2.43362177
 Cu            12.36917624       6.39424366       8.51902043      -0.25896246      -0.59660978      -0.99948996      -2.44446619
 Cu            13.11416487      11.56706889      10.24722556      -1.88866259      -2.29513301      -0.83569083      -3.02120951
 Ni            10.42123532      14.96311534      12.25670156      -1.18255744      -0.14806412      -0.55601206      -4.33113730
 Ni             7.25754232      10.65293905      11.11200264       1.55887599       2.27983121       2.85285483      -5.41273638
 Ni             8.43187109       9.06671060      10.19738740       7.96012071       2.06950248      -5.54240332      -4.64800034
 Ni            15.60507171      11.63968678      10.98390451       0.32308949      -0.59943234       0.88777094      -4.50846060
 Ni             7.21486724      10.08394782      14.05211724      -0.00864071       0.12186932      -0.74656017      -4.34193012
 Ni             8.59385448      13.76650391      10.08681039       0.89241169      -0.72990008      -0.79198931      -3.98182219
 Ni             9.95530370       6.69813450       8.77378433      -1.70347506      -0.05969172      -1.05553619      -4.66674373
 Ni            14.18354677       9.06748051      13.34416418      -1.29099652       0.40270288       0.79497542      -4.40856157
 Ni             6.30166936      12.41935135      12.16027426       0.52795816      -0.53429398      -0.13391636      -4.13675025
 Ni            11.72184116       9.03250499      14.61702557       0.78017281       0.26868054      -2.08684823      -4.18225941
 Ni            11.57429115      13.15841182      14.95882248      -0.16697993       0.06017674      -1.17501573      -4.00821039
 Ni            14.59890965      12.89342203       9.65980317       1.02871950       2.64236924      -1.74879964      -4.03128983
 Ni            13.09087803      11.26235257      12.48532352       1.71006148       0.88874714       1.07487061      -4.78866616
 Ni            13.55990732       6.76667213      10.65455677      -1.70414639      -1.99237321       3.35406952      -4.05429784
 Ni            14.80113369      13.25660924      12.52445680      -1.16005234      -0.46434667      -0.33017252      -4.53700909
 Ni            12.19000394       8.25582875       6.55018098      -0.43380202       0.70761394       1.29610486      -3.90594465
 Ni             8.34704490       8.48665333       7.37751785       1.63660303      -1.41211695      -0.16755871      -4.44795277
 Ni             9.26889120      10.50526484      13.42170224       0.51626575       0.33737683       0.45995782      -4.99857588
 Ni             9.42969612      10.18975901       6.00000000      -2.66273501      -1.02331630      -0.32325646      -3.91809972
 Ni             8.84868302      12.30785311       6.71684240      -0.73075761      -0.79370255      -0.77727097      -3.75419524
 Ni             6.43620560       8.86838237      10.31706189      -6.77326609      -2.59803608       1.97479225      -3.67516957
 Ni            11.30467338       7.59188425      10.10265077       2.24528027       4.43890357       0.44073262      -4.36099073
 Ni             6.00000000      11.02535014       9.40587241      -1.81382271       4.04810838       1.43897365      -4.01213645
 Ni            12.51458431      14.61365387      12.91099923       0.63593925      -1.20567519       0.41249540      -4.34480701
 Ni            14.77624427       9.65176233      11.36885787      -0.87566494      -0.07473821      -0.95574637      -4.90511487
