      50
 Properties=species:S:1:pos:R:3:forces:R:3:local_energy:R:1 Lattice="21.5378914039       0.0000000000    0.0000000000    0.0000000000   21.7849258917    0.0000000000    0.0000000000    0.0000000000   21.1986250586" energy=-168.753465 virial="32.33273845          -0.70960965     -9.34473211     -0.70960965     18.70249557      3.89416187     -9.34473211      3.89416187     17.91962301" stress="-0.00325069           0.00007134      0.00093951      0.00007134     -0.00188032     -0.00039151      0.00093951     -0.00039151     -0.00180161" volume=9946.423879
 Cu            10.98156780      13.52302329      10.95362142       1.92016304       3.07077569      -2.14234316      -2.70257506
 Cu            11.78686484       7.81380089      13.12040115      -0.11236292       0.88803998      -1.21876559      -2.94408772
 Cu             6.32135812      11.64300445      10.78273144       0.93761632      -0.02348045       3.31341507      -2.54084875
 Cu            11.35318853      12.10793659      14.61245568      -2.26878164      -1.17926470      -0.08287630      -2.51509304
 Cu             9.48551036       8.02760689       7.34405315       0.03013544      -2.55582010      -3.69271291      -2.22772503
 Cu            14.37466921      10.22287950       7.35047778      -0.26267500       0.89758184       0.51758309      -2.22492673
 Cu            15.53789140      11.27373058       9.52798152       0.71473606      -0.62350638      -0.53110298      -2.34845588
 Cu            10.59136345      14.77727894       7.40881948      -0.34036196       2.14355215      -1.76795148      -2.83460782
 Cu            13.02781514       8.25875773       7.23051754      -1.41086865       0.25707994       0.08683722      -2.08554874
 Cu            13.34369336       9.72207212      14.82136545      -0.99383721       0.60176494      -1.50328301      -2.10643697
 Cu             9.87889349       7.99112624      10.77781230       1.42983913       3.12985266       2.46057494      -2.70219094
 Cu            11.82414263       6.89079749      10.41034393       1.32238336       0.73348055      -0.95624704      -2.68172090
 Cu            11.23360481      10.51102811       6.00000000       0.29441790      -0.30606048       1.81879347      -1.91885061
 Cu             7.73717495      10.12036933       9.80852607      -0.43710986      -0.90062640      -0.86441322      -2.32106062
 Cu            14.81077216       8.33647441      10.90019437       0.06291503      -1.57373399      -2.06108115      -1.99178430
 Cu             9.26303750      11.14618812       9.00850808       4.36164517       1.54628289      -4.61466411      -3.11984360
 Cu             8.54963496      14.19027950      10.40198122      -0.53189721      -0.74067020       0.99304767      -2.95850336
 Cu             8.44996129       7.33494439       9.52510380      -3.14857305      -0.69633249      -2.54952215      -2.70625041
 Cu             8.37221060      12.34025100       6.72053472       0.02934338      -0.68946197       0.59001304      -2.39716705
 Cu            10.26369522      15.78003837      10.06467137      -2.10646271       0.21997090      -2.09794089      -2.31036603
 Cu            12.32974553      13.45148866       6.67639252      -1.93645578      -3.19044544      -4.74337073      -2.21838244
 Cu             7.77695352      10.19071697      12.89431164      -0.51818500       0.40178755      -1.74559353      -2.97323071
 Cu            12.61735191      10.81386656      12.28426325      -1.26428582       2.53334628       5.06142363      -2.34753942
 Cu            11.13057429      11.48852976      10.85085472      -2.07630494       0.53927356       1.84154465      -2.62064885
 Cu            11.69647874       9.38752508      11.05983798       1.95860601      -4.09346437      -2.10957889      -2.47743223
 Ni             9.59683880      13.69219186      12.51553045      -1.67208377      -0.08569204       0.29107212      -4.80190496
 Ni            13.21652707      12.51426966      13.97061355       2.75953214      -0.43831324      -2.07821132      -3.71507625
 Ni             7.44241156      12.02216855      13.93337893       0.31559539       1.07801114      -0.48130475      -3.90832469
 Ni            12.06571602      11.19271471       9.04109173       1.07958440      -0.04812781      -3.72985725      -5.20285652
 Ni            12.63301928      14.98103096       7.95460886       2.21530159       4.04603486       1.91584579      -3.36748783
 Ni             8.17615570       9.55947399       7.13171647      -2.23895486       3.69852404       1.05182170      -3.93895715
 Ni            14.43200948       9.90929281      12.15474009       1.55195610       0.79488239       2.21481181      -3.66212026
 Ni             6.00000000      12.08759061       8.83252638       0.38103303       0.09344116      -2.57914306      -3.68884242
 Ni            14.71941657      13.63058487      11.99553884      -0.92468826      -0.69873545      -0.40367251      -3.82889432
 Ni             9.30695667       7.03813482      13.16497131       1.76114396       0.21427306       0.44235371      -4.57532952
 Ni             7.62629311       8.16095114      13.52100900      -1.75433702       0.32956932       0.41129643      -3.72995785
 Ni            10.11081173       6.00000000      11.52058040       0.10360647      -3.04683341       0.02884029      -4.09720338
 Ni            10.58878259       9.05559597       8.75239615       2.66068983       1.52431923       1.99338624      -5.11048828
 Ni            13.37494550      13.05415545       8.49205558       1.63612890      -2.20389285       3.06668350      -4.95220858
 Ni            12.33436821      15.36949510      10.05325373       1.86856567      -0.87632283       1.09953564      -4.41359692
 Ni             9.27396911      13.59164116       8.40766740      -1.51450627      -2.90621525       1.81473927      -3.81886320
 Ni             8.68061896      11.74450657      10.93716481      -0.49963121       3.35296253       2.45003793      -4.86768293
 Ni             9.48569939       9.64044448      15.19862506      -0.10837583       0.12801776      -1.10258341      -3.90300317
 Ni            10.42275957       6.42248073       8.39742916       0.95176254      -0.46238602       2.66746786      -3.84239490
 Ni             6.62898864       8.88325762      10.92335758      -1.63815239      -2.30795126       2.02845735      -4.41727876
 Ni             9.82941078      10.11647451      11.90031184      -1.29000412      -1.44214794       2.23344681      -5.01289686
 Ni            10.60812245      15.78492589      12.22564297       0.29672197      -1.15218472       1.00623331      -4.19976625
 Ni             9.17574109      13.35948554      14.51155641      -0.28668668      -0.14217552       2.05211316      -3.93956137
 Ni            13.69002091      11.64457737      10.57787582      -0.98426757       1.00567725      -0.06804914      -5.01251345
 Ni             6.58070024       8.75833915       8.54114658      -0.32357312      -0.84465637      -0.32710711      -4.47097810
