      50
 Properties=species:S:1:pos:R:3:forces:R:3:local_energy:R:1 Lattice="21.6454500502       0.0000000000    0.0000000000    0.0000000000   21.7286366497    0.0000000000    0.0000000000    0.0000000000   21.0089300637" energy=-160.686916 virial="-10.86403184         -0.01837399     -5.15313816     -0.01837399      4.81111658      5.03061790     -5.15313816      5.03061790    -21.29664483" stress="0.00109948            0.00000186      0.00052152      0.00000186     -0.00048690     -0.00050912      0.00052152     -0.00050912      0.00215530" volume=9881.048547
 Cu            10.79427680      14.91180169      11.97256192       0.30691255      -1.44387608      -0.36939538      -2.71901752
 Cu            12.07173510      15.45186689       8.93276317       1.65245560       2.95057360      -0.68492505      -2.30088548
 Cu             8.77105282       8.34218760      11.10740001       0.48442215      -1.96193138       1.20046819      -2.70692635
 Cu            12.50665071       9.25236754       7.45128192      -2.07262494       0.77820815       1.18917362      -2.58288381
 Cu             7.48963994       8.16695054       8.49418148       0.86698483       0.10440425      -0.57304828      -2.53301853
 Cu             6.85062366       9.38673444      10.33030912       1.04929448      -1.52700049      -1.08626566      -2.57878315
 Cu            13.38495482      12.89502505      11.75321163       0.13399081       0.07106060       0.10140074      -2.67399802
 Cu             7.37632429      12.86911497      12.16059447      -2.58628060       0.74308761      -1.31265369      -2.71865080
 Cu             7.56606716      10.31242671       7.41321357       0.21678347       0.05789426       1.17749510      -2.58525843
 Cu            13.14447397      11.05813067       8.53876391       1.28179724       0.76972433      -1.16536059      -2.91469611
 Cu            12.66519761      10.40840969      15.00893006      -0.74800999       0.07115430      -1.19878546      -2.32506045
 Cu            12.29688868      11.70651515      10.40468176      -4.26979627      -0.47348192       0.58690677      -2.73383613
 Cu            10.77351468       7.50609449       8.51068140       0.42523158       1.34147437      -0.55009204      -2.82684148
 Cu            15.05465074       8.91017090      12.53388164      -0.13963086       0.55907346      -0.74411030      -2.71913773
 Cu             6.92569877      13.36350625       9.09016076       0.46483612       0.31758299       0.25894927      -2.80658161
 Cu            13.84278029       6.94468229      11.08458361       0.09736215      -0.43567774      -0.56328315      -2.51005928
 Cu             9.37389957      12.23092512      12.03361262       1.87654577      -0.27006156      -0.65672010      -3.17650053
 Cu            14.59555915      12.32077295       7.11992471       0.14080435       0.05034406       0.75557950      -2.25197973
 Cu            14.25246034      14.37905000       9.87125454      -0.68835052      -0.83154418      -0.31781074      -2.49555789
 Cu            11.85300314       9.74009592      12.52295684       2.66500695      -1.55236223      -2.83655101      -3.13310818
 Cu             9.88439972      11.64036451       7.91554608       1.07846092      -1.20618067      -0.52721856      -3.06578858
 Cu            11.50763391       8.11893779      13.91981727      -1.08777591      -1.23265527       0.67831100      -2.31369702
 Cu             9.82060925      15.72863665       9.53873263      -0.11727328      -0.06989326       0.64544152      -2.53658115
 Cu             9.00821311       6.38668889       9.23714056      -0.57227708      -0.28510002       1.21741178      -2.19813475
 Cu             8.98826086      10.95340744      14.99436122       1.00563736       0.72627290      -1.09981848      -2.34072944
 Cu            14.54669270       8.85060669       7.81795968       0.21200040      -3.22276631      -1.08693993      -2.28172282
 Cu            10.71695426      13.32274205      14.90078419      -0.03747943      -1.12171522      -2.06892591      -2.21281946
 Cu             9.14625451       8.74396123       6.21096143       0.54044418       0.26554948       1.67507086      -2.20068291
 Cu             9.73246856       9.71718714       9.70175005       0.79156468       0.83036392      -0.98200800      -3.06326027
 Cu            12.51578736      11.72920573       6.11584357      -0.41858917      -0.40083548       0.76828105      -2.33484199
 Ni             6.19421401      11.26622696       9.48103396      -0.02094727       0.77967612      -0.15201645      -4.22099186
 Ni            11.54279854       8.21922404       6.00000000      -1.47504149      -1.34623035      -2.04870675      -2.97294454
 Ni             6.98282875      11.10206234      13.62842874       0.94326504       0.06770327       0.51867892      -3.89394741
 Ni             6.00000000      10.74578473      11.75204004      -0.18743374       1.46159042       0.12907719      -4.25440235
 Ni            15.64545005      10.42883161       8.45901524       1.12272379       3.29081544       1.41798708      -3.98079767
 Ni             8.98948034       7.05864828      13.39420666       0.53079555       0.37399761      -0.47468362      -3.88098809
 Ni             9.41900411      13.59654305       8.70715436      -1.68306873       0.94344074       1.69561388      -4.87878987
 Ni            13.80853886      10.23487407      10.69089428       1.12150868      -0.21837286       2.01702480      -5.26625210
 Ni            10.85889549      11.35152270      13.23301392       0.04070638       2.52074698       3.24654847      -3.22477309
 Ni            11.40802439       7.26696622      10.92893769       1.14300660       2.77820789      -0.79897532      -4.86021255
 Ni             9.96970102      14.30397482       6.77007902       0.37504197      -0.20643473      -0.28919528      -4.14087436
 Ni             8.45433749      11.75607890       9.87562089      -0.66455673      -0.29732644       0.40220639      -5.28454882
 Ni            11.50310354      13.59008225       9.51470690      -0.36188247      -2.87816023       1.36252921      -4.16483120
 Ni            15.04778795       8.61809815      10.05479387       1.03607320      -0.51844355      -0.49445859      -4.35106552
 Ni            15.43154519      12.45433977      11.12549259       0.54364230      -0.20948948      -1.53584927      -4.21748579
 Ni            12.77673331      14.01556551      13.35872038      -1.59210820       0.77667863       1.56134730      -3.30896625
 Ni            13.48091116       7.59103621      13.10709458      -1.38820630       0.11336896       0.52405575      -3.46515213
 Ni             7.84271783      14.94886229      10.57287968       0.75218446      -0.73156602      -0.26580362      -3.91253402
 Ni            15.11453019      11.21644644      12.84614685      -1.07840363       0.38403060      -0.00798958      -4.26231967
 Ni             9.96255997       6.00000000      11.66489208      -1.70974696      -0.68591948       0.76203240      -4.30399875
