      50
 Properties=species:S:1:pos:R:3:forces:R:3:local_energy:R:1 Lattice="20.7914226922       0.0000000000    0.0000000000    0.0000000000   21.2632135717    0.0000000000    0.0000000000    0.0000000000   22.1152822647" energy=-154.911210 virial="3.13168078           -0.07849570     -6.79492583     -0.07849570      0.54016974     -6.43762279     -6.79492583     -6.43762279      1.58010945" stress="-0.00032031           0.00000803      0.00069499      0.00000803     -0.00005525      0.00065845      0.00069499      0.00065845     -0.00016161" volume=9776.999566
 Cu             7.22828548      10.01385460      14.58743405      -1.98720840       2.19715568       0.00359921      -2.40279729
 Cu            11.84160722      14.89724666      11.78286529      -1.23872458      -0.82238598       0.13844296      -2.53504424
 Cu            10.53801567       9.85986417      11.16937773       2.87798151       1.38373679      -2.17728106      -2.57892149
 Cu             6.22462124      12.03208667      11.07158226       0.86029954      -1.47962148      -3.17704266      -2.63379791
 Cu             6.00000000      12.43842873      13.20222871       0.80066721       0.02321492       1.86283621      -1.95813125
 Cu             8.77232545      12.94625469      14.34293497      -2.34190993      -2.59957131      -0.97546718      -2.67101204
 Cu             8.76082211       6.71433753      12.81539071       0.29775159      -0.72945074       1.06576856      -2.40441541
 Cu            11.64909629      12.88910885       9.18383149       0.13225401      -1.98404051       1.71021126      -3.11206340
 Cu            12.94414904      12.15652155      13.40328987       0.85389640      -0.72192803      -1.36648414      -3.31591649
 Cu             8.48891760      13.22172893       7.23373404      -0.29642046      -1.44455348       0.43580748      -2.59119420
 Cu            11.87935626      10.15782969       8.94738258      -0.94767840      -0.90122551       1.53414134      -3.11287919
 Cu             7.59375929       7.97914606       9.50717009      -2.95419801      -1.72570771       2.67746199      -2.42797822
 Cu            11.58415525       7.27711643      13.52980553      -0.80763536       1.16312192      -0.86664852      -2.35232795
 Cu            10.53523812       8.21545491       7.26989115       1.64625549       1.67549835      -1.16404550      -2.77135743
 Cu            11.12933415      10.67869039      14.52264065       1.53010040       2.52513054      -1.11757585      -3.11748290
 Cu            12.72406501       7.97429394      10.44438780      -0.14553755       1.64953246       2.81080192      -2.82019592
 Cu             9.37544956      10.23650120       6.00000000       1.63487784      -0.03102373       0.19848085      -2.49554042
 Cu             8.45888637      15.26321357       9.88757509       0.24538819       0.08884076       0.02306109      -2.66594414
 Cu             9.71654207       8.37924281       9.60111479       3.43889013       0.94879231       1.04093008      -3.03924910
 Cu             9.11204518      10.45239408      13.62753121       0.44937702       0.54679456       0.16043104      -2.97609217
 Cu            12.59158629      10.10134443      11.98839869       0.71083051      -0.33208517       0.75459395      -3.15110715
 Cu             9.05297609      14.06556844      11.99161537       0.12690859       0.35182808      -1.12425253      -3.15567912
 Cu             6.70002636       8.82110499      11.52903070      -1.39507701      -0.16763450       1.50094558      -2.74387365
 Cu             9.07878237      11.64191116      16.11528226       0.10305296      -1.63644667       0.03297357      -2.29575054
 Cu             9.48819890      11.82905995       9.69590333      -0.35285752       0.39280911      -0.43015443      -3.73682941
 Cu             6.20773041      11.97462065       8.11099602      -1.72807974       3.20563016       2.21783525      -2.22978402
 Cu            10.18838493      11.88505554      12.04582837       0.02881646       0.63929295      -0.42748775      -3.22515789
 Cu            13.14882680      11.04302673       7.40244405       0.62508760       0.76985907      -0.59152987      -2.77487971
 Cu            13.76219051      11.53631613      10.35985190      -2.23628717       0.22300228      -2.82816323      -3.43665391
 Cu            11.06799511      13.29416795      13.67179395       0.81867889      -0.27839679      -0.13884203      -3.10015080
 Cu             7.48606443      10.74785048       7.05245203       1.46190676      -1.72330800      -1.41774986      -2.34246546
 Cu            13.51299422       9.58727625      14.66838463      -1.09740152       0.18934810      -0.37205915      -2.18614990
 Cu            10.55702217       6.00000000      11.39308836       0.21295135       1.48317436      -0.50532217      -2.32843446
 Cu             9.08692907       8.76521266      12.14379195      -1.26861314      -4.17142077       4.02724207      -2.51006722
 Cu            13.98163887      13.93090653      11.74964372      -0.26208363      -0.53925562      -0.25364280      -2.50228628
 Ni            13.05992030      13.43758505       7.72546750       0.54373115       0.04119184      -0.60015222      -3.72381016
 Ni             9.94478272      14.08944570       8.69423631      -0.39970664      -0.18854191       0.20031797      -3.69710951
 Ni            11.07519086      12.03767941       6.69689541      -0.66095585       0.03444792       1.71607580      -4.50008093
 Ni            14.34451245       9.54989330       9.06698550      -1.69964016      -0.07396999       0.39493327      -4.20709182
 Ni             8.32817145       9.82058039      10.60170482      -0.57724795       4.51445394      -3.20054033      -4.19298448
 Ni             8.48531095       8.41273221       7.75568278      -0.79206512       1.38418020      -3.70657186      -4.37215812
 Ni             6.66184891      13.97198392       9.67422720       0.36934276      -0.77133106       0.04853082      -3.65556907
 Ni             6.48721009       9.89543749       8.96151445       0.42899616       0.22912777       1.18146725      -4.64876659
 Ni             7.75893439       8.02353833      14.64825578       1.73044709      -1.81287102      -0.41279236      -3.54832383
 Ni            12.26410288      12.30375415      15.53782492       0.31520854       0.37814756       0.51205629      -3.89682920
 Ni            14.79142269      11.79043220      12.12736198       1.43115139      -0.71431684       2.30943886      -3.08738087
 Ni            10.67190225       8.84045566      15.24128179      -0.75164559      -2.36858135       0.21276583      -4.13827076
 Ni            12.24993414       7.36301786       8.53723766      -0.20360394      -0.22392182      -2.10957226      -4.04179947
 Ni             9.69127131      14.77273852      14.29260937       0.60378384       3.87679514       0.05090723      -3.21633519
 Ni            10.21304952       6.50670888       8.67411116      -0.13405576      -2.47351677       0.14132004      -4.28308882
