      50
 Properties=species:S:1:pos:R:3:forces:R:3:local_energy:R:1 Lattice="21.5960050319       0.0000000000    0.0000000000    0.0000000000   20.8767787683    0.0000000000    0.0000000000    0.0000000000   21.1355836789" energy=-153.686673 virial="-4.14010461         -10.36317556      0.10690293    -10.36317556      8.16849432     -6.34011039      0.10690293     -6.34011039     21.95140423" stress="0.00043447            0.00108753     -0.00001122      0.00108753     -0.00085722      0.00066534     -0.00001122      0.00066534     -0.00230362" volume=9529.083988
 Cu             8.05080783      11.65788454      11.86993341      -0.89789411       1.07248710       2.13092269      -3.03418194
 Cu            14.84319872      10.68260958      12.42468267      -0.59075430      -2.98797027      -0.71310524      -2.37467585
 Cu            13.29793398      13.56444729       9.28562240       2.34628030       0.65008464       1.23253200      -2.61290943
 Cu            11.17419855      10.29819748      12.28485861       1.75289098       3.42107326      -1.43565599      -2.90539345
 Cu            12.98585592      12.60409427       7.42626915      -0.26451321       0.71790691      -1.23541526      -2.57293584
 Cu            10.89170629       8.64090018       9.05823598       2.32160767       4.29692713      -2.78930188      -2.44085651
 Cu            11.42848949       6.00000000       8.75791383      -0.38691535      -0.77892965      -1.75477324      -2.06695793
 Cu             8.73308681      11.21957391       7.39661962      -0.94338982      -2.18817917      -0.99380772      -2.86657412
 Cu            11.77522736       6.24605373      12.31040179       0.22082607       0.61533816       1.57082754      -2.18120873
 Cu             7.27491014      13.50048963      10.03656082      -0.19238344      -0.69408400       0.85208336      -2.63172151
 Cu            14.52121658      12.57273419      13.39366772      -0.73296738      -0.12810987       0.71893249      -2.55142294
 Cu             8.67651525      13.95663746      13.32370602       0.30028881       0.01578796      -0.99418419      -2.61458694
 Cu             9.11222884       7.59893190       8.56550850      -1.24508859      -0.74680789       0.12371824      -2.75022919
 Cu            10.57057214       9.06517933       6.00000000      -0.69779404       0.90388100       1.20815362      -2.24649374
 Cu             8.99850161      10.44509291      13.87237545       0.42353287      -0.27204300       0.06528202      -3.16872807
 Cu            14.19771734      10.77922660       8.11097979      -1.12325865      -1.32938440       1.99543272      -3.22860555
 Cu            11.11563664       7.19795591      10.47500975      -0.29725192      -0.87987071       2.91329976      -1.86918323
 Cu             9.81726017       8.80214777      12.10437802      -2.75157329      -2.89647500      -0.19163324      -3.09231770
 Cu            11.42712829      11.30487097       6.52828753       1.02629147      -0.47492965      -3.90919779      -2.40820717
 Cu            11.84005362      14.76970369      12.53997267      -0.21176069      -0.09877338      -1.18115512      -2.70917483
 Cu            10.62514201      10.91561190       8.35808072      -0.50991467      -2.94934514       3.28418414      -2.27936148
 Cu            12.14487742      11.07474246      14.10110820      -0.18031611       5.61050512      -1.92320959      -2.33621183
 Cu             6.68966665       8.91451098      10.97874218       1.09484925       0.17423275      -0.36988029      -2.75445244
 Cu            12.85897624       8.84494194      12.67721994      -0.11772729      -2.13297612      -3.43988920      -2.80167981
 Cu             9.07645904      14.87595380       9.30745028      -0.64051524       2.52883293      -1.99348134      -2.46774710
 Cu             9.90592852      14.59589240       7.02845242      -0.55438331      -0.47199548       0.22883783      -1.97946148
 Cu            13.16343102       9.43121142      14.65164983       4.09108125      -1.92697624       3.73216531      -1.82815951
 Cu            12.74733319       8.64659869       6.61506228       0.02285582       1.99927552      -0.16017456      -2.57851598
 Cu            15.05391568      11.93223377      10.51459506       0.06563910      -0.10714623       0.79970303      -2.90309177
 Cu            11.34840042      12.46995632       9.61476998       1.91794083      -0.77648006      -1.14331005      -3.00425137
 Cu            11.03713094       9.62554819      15.13558368      -3.26787722      -1.92535289       0.35305999      -2.44352272
 Cu            13.25459727       7.21202652       8.14999072       0.29966601      -0.03835598       2.29952950      -2.36470211
 Cu            13.89731102      11.07238675       6.01747688       0.03724742      -0.42164636      -2.22683070      -2.02364843
 Cu            11.76452911      14.87677877      10.18287870      -1.04735162       0.23210502       0.05243392      -2.64462757
 Cu             6.00000000      11.07330425      10.11469653       1.16849527       0.37885977      -0.12269007      -2.34934186
 Ni            12.95304488      12.27949088      11.10022230      -0.02719607       0.02906535       2.92552970      -5.11399882
 Ni            14.87018033       7.78935562      11.05249758      -0.90417229       0.77902306      -0.24987072      -4.25294177
 Ni            13.38479890       9.25004152       9.88350071      -2.80470055       0.41027348       2.05170385      -5.33850372
 Ni            10.26536297       7.40421602      13.92725576       0.39927475       1.24262534      -1.32995829      -4.04613474
 Ni             8.86543636      10.74307215      10.17533201       1.06648819      -1.84273970      -2.15162367      -5.20500604
 Ni            10.29995232      12.31156026      12.95176800       0.73446589       1.09824469      -0.88407710      -5.15645595
 Ni            14.29668941      14.46140164      12.33353781      -1.78046935       0.12530525      -0.15457909      -3.96476546
 Ni            15.11465987       8.89775729       8.90757330       2.56132574      -0.75233306      -1.28238481      -4.26841363
 Ni            12.81107624      13.81731408      14.19246133       0.38048001      -0.69883644       0.04311385      -3.90525486
 Ni            15.59600503      12.34280276       8.49929310       0.12868480       0.70313791      -1.38450793      -3.40107791
 Ni             7.19610518       9.38913337       8.80426260       0.75709914       0.74874030       0.23151044      -3.89088994
 Ni             9.38375585      12.51922145      14.90292924       0.11135794      -0.49084666       1.09964918      -4.09763732
 Ni             8.06875598      13.11864388       8.02744654       0.27413616       2.10404526       0.13858852      -3.93638853
 Ni             7.41728820       8.99345103      13.12208083       0.83152181       0.01891480       0.03421695      -3.63372540
 Ni             9.71661488      13.29796027      10.42781174      -2.16415908      -1.86608537       3.92928641      -4.39033874
