      50
 Properties=species:S:1:pos:R:3:forces:R:3:local_energy:R:1 Lattice="21.7616365970       0.0000000000    0.0000000000    0.0000000000   21.5491338911    0.0000000000    0.0000000000    0.0000000000   21.3514341609" energy=-137.853318 virial="7.22440741            6.67291589     -2.75844256      6.67291589      1.31331897     -8.41598597     -2.75844256     -8.41598597     18.82651594" stress="-0.00072153          -0.00066645      0.00027550     -0.00066645     -0.00013117      0.00084054      0.00027550      0.00084054     -0.00188028" volume=10012.635924
 Cu            11.39891592      12.79294745       6.47563903      -0.12639177       1.84428139      -2.78759639      -2.55711758
 Cu            13.10447843       9.79031427       6.96477027       0.56818028      -0.94918854       0.71156354      -2.86557030
 Cu            13.98304610       7.72300172       8.44125862      -1.50216898       0.78538833       0.62618912      -2.01164078
 Cu            15.21943804      12.53137766       9.02631741       0.41055776       5.99694230       0.86383499      -2.16401311
 Cu            10.54265304       8.46208565       7.42140850       1.59258556       2.63038247      -0.98146018      -2.73392440
 Cu            13.56550862      11.37733523      11.10832982      -1.03827398       2.30297030       4.69214677      -2.47699917
 Cu            10.41150111      14.79052267      11.81656016      -1.54219024      -1.15595993       0.39967016      -2.80021441
 Cu            11.92609791      11.19943579      13.96502083       0.88524301      -2.38336103       2.32624651      -2.74995394
 Cu            15.76163660      11.51848313      10.73058135       1.66516572      -1.62011808       2.12165693      -2.25231286
 Cu            13.97859640      10.02349884      14.79704892      -0.59513282       0.24788775      -0.95767600      -1.97969665
 Cu             9.86136729       6.60330820       8.09810301      -0.76434875      -2.32135015       1.04071584      -2.15685030
 Cu            13.18847501      14.54469241       8.41921363       0.15393609       0.61525814      -1.99478159      -2.99003053
 Cu            11.26350963      11.12061567      10.87272854      -1.23789268       0.02246005      -0.89182072      -3.24431948
 Cu            13.33898097       7.72534935      12.66217863       0.86615856       0.66738564       0.24258428      -2.67791026
 Cu             8.34158269       7.95136748      11.54687979       0.06317969       1.13765600      -0.40154940      -2.71956725
 Cu            10.08911236      13.62673202       9.39665795      -1.03543688       0.84492859       3.92324243      -2.69879020
 Cu            13.72921845       9.28550264      10.33429274       3.32788121      -2.24377498       0.05490178      -2.74329218
 Cu            11.27563942       6.00000000      11.81078808       0.25464873       1.13395913      -0.02955607      -1.99948518
 Cu             8.66565633       9.94965480       6.17836787      -0.13962491      -1.62970080      -0.32416506      -1.85523362
 Cu            12.67979950      14.53231828      12.84115035       1.87720315       2.03198966       0.85413714      -2.37263296
 Cu            12.11055041      15.54913389      10.86608435       2.35686635       3.22567803      -1.46834649      -2.37384173
 Cu             8.08177432      11.00606382      11.46386480       3.77499984       1.24735626      -4.88431390      -2.56277124
 Cu             7.88447422      10.81161951      13.51152944       1.63237911      -0.12717392       4.41208825      -2.67257300
 Cu             9.18519701      13.38061759      13.21132396      -3.36065305      -1.47047041      -2.65538515      -2.54588496
 Cu            11.89480757       8.59039637      11.04929467      -3.02813397      -0.75315120       0.08817792      -2.92782280
 Cu             9.41929375      11.76594396       6.95230155      -1.24506450       1.27368612       0.64489562      -2.52103038
 Cu            11.40005526       7.52194356      13.99403956       0.11239271       0.00583360      -0.93916282      -2.43551666
 Cu             9.19601297       8.19138978      14.04454265      -0.66380986       0.54748286      -0.17484269      -2.25849872
 Cu            11.77265670      12.69233911      12.57019628      -1.68131714       0.51748452      -2.71020568      -2.40146881
 Cu             9.24476680      10.06001462       9.02703571      -0.17674538       0.71483941       0.25517788      -3.28618432
 Cu             6.00000000      11.35762198      10.25819738      -0.55142046      -1.11377198      -1.21245991      -2.81404642
 Cu             7.12377782       8.54979702       9.39633807       0.62743539       1.05109105       0.88764702      -1.90517174
 Cu            10.02950043       9.70908426      12.50255740       0.14207247       0.35463465       0.31506170      -2.77155570
 Cu            11.19173211      10.40751170       6.00000000      -0.88819278      -0.25669601       0.17315773      -2.56504893
 Cu             9.81945875      10.88041069      15.35143416      -0.21022703       0.01086425      -1.05923527      -2.19511748
 Cu            10.57526084      13.56495946      14.72376088       2.77251068      -0.69871592       1.72942862      -2.17387616
 Cu             7.24773495      14.05517256      11.22348383       0.81072603      -0.93172148      -0.24577112      -2.65006576
 Cu            15.09500878      11.34231172       7.35333760       4.35034321      -4.09931286      -3.44999052      -1.91410271
 Cu            14.50914122      12.50210954      14.10745428      -1.75327171      -0.98215583      -1.03321296      -1.85841366
 Cu            13.72940569      11.06146004       9.10464870      -3.23960817      -0.92902773      -3.50191752      -2.35289382
 Ni             9.85223022      14.61503987       7.55203388      -0.13830288      -0.21024220      -1.39713641      -4.20854473
 Ni            15.32944228       8.74226708      12.08226451      -1.10122034       0.44840480      -0.64760111      -3.41431159
 Ni            12.19764053      13.58131535      10.04679646       0.89352105      -4.10056557       2.11506784      -4.98771100
 Ni             6.80535418      12.98296148       9.28070974       1.50405190       1.72874955      -0.48697594      -3.52614239
 Ni             6.20908634      10.46231419      12.15947252      -2.54984753      -1.96114410       1.92000428      -3.20342013
 Ni            11.86656543       6.23763394       8.97660578       0.11713879       1.17311004       0.63044990      -3.13866499
 Ni            10.95056930      12.12832187       8.37913324       2.92894524      -4.33197500       1.08025577      -4.35538461
 Ni            13.43687015      12.48728961       7.16813020      -3.06275631       1.83756263       0.83339245      -3.98681457
 Ni             8.92221818      15.15499229      10.19483702      -1.67699198       0.78455525       0.49381483      -3.68436580
 Ni            14.47036799      14.78565700      10.22821127      -0.37909842      -0.91324504       0.79965360      -4.11251845
