      50
 Properties=species:S:1:pos:R:3:forces:R:3:local_energy:R:1 Lattice="21.2742823904       0.0000000000    0.0000000000    0.0000000000   22.1384678466    0.0000000000    0.0000000000    0.0000000000   21.3859125540" energy=-138.542888 virial="7.01875971           -4.18935491     -6.23583308     -4.18935491     11.89805910      5.68612137     -6.23583308      5.68612137      5.31782643" stress="-0.00069684           0.00041593      0.00061910      0.00041593     -0.00118126     -0.00056453      0.00061910     -0.00056453     -0.00052796" volume=10072.337451
 Cu             8.47738453       9.28096974      11.31467355      -0.73501562       0.89815891      -0.09476869      -2.87651019
 Cu             9.96316402       8.34682569      10.01533234      -2.34791741      -0.34369817      -0.62251785      -2.63783961
 Cu            12.22100221      14.16614237      14.20785433      -0.45602431       4.22678990       2.67618976      -1.88599376
 Cu            13.48556193       7.34849337       8.43968839      -0.37237377       0.89769423       0.59497631      -2.11802838
 Cu             9.29032971       9.90646013       6.58675612      -0.52424383       0.54113401       1.01434710      -2.48422125
 Cu            11.99373127       7.86004271      10.33870287       3.22987000       1.30610363       0.20399623      -2.60125660
 Cu            11.62087816      10.20286937       9.17487849       1.86993728      -0.68461473       2.71217030      -3.38381334
 Cu            13.28521222      11.40385542      11.49446976      -0.97934522       1.41066097       0.30381417      -2.64508586
 Cu             7.61466474       9.41838726      13.59447950       2.59989036      -3.34245444       0.56964666      -2.18597167
 Cu            11.73410062      13.55859387      10.22887150       0.11675820       0.90135622      -0.79919940      -3.31331606
 Cu            14.80935317      13.43555711      11.72985421      -0.29480543      -0.23979130      -0.42447103      -2.39656392
 Cu            11.67884584      12.18236209      14.60018772      -1.52418569      -2.12974757      -0.78522043      -2.23784890
 Cu             9.60051263       6.72741842       8.20938794      -0.68614602      -0.15659687       0.23679138      -2.33234879
 Cu             6.76148224      11.27755207      13.59918508      -1.04678393       1.55477679       1.37059160      -2.08712806
 Cu            10.07613282      13.10001482       6.00000000      -0.30107583      -0.90975562       0.82598472      -2.11056438
 Cu             8.78568736      13.51798996      14.33521931       0.24377577       1.35690175       2.05550711      -1.88248134
 Cu            11.85237307       7.38742424      12.60279496       0.44206630       0.72913027       0.15644444      -2.81000264
 Cu            11.83193165      15.97141717      11.67317078       2.25017715      -0.49918704      -1.93937260      -2.26186382
 Cu            10.30571448       8.42541353      14.40170541       0.23545522      -1.22908820      -1.06457053      -2.26358382
 Cu            13.91950254      14.93359868       9.08088491       1.15760573      -0.79480719       1.38317824      -2.34212324
 Cu            10.08920529      10.34029155      15.38591255      -0.07940536       1.44113598       0.26571197      -2.02197426
 Cu             9.00841843      12.99306949      10.06457720       3.17670953      -1.69448862      -0.82014292      -2.72575161
 Cu            14.18284147      10.78530198       7.54755854       0.98909348      -3.21267518      -0.78550304      -2.55253449
 Cu             7.74800858      13.25926555       8.09302252      -0.90545089      -2.64792745      -0.32431608      -3.05470062
 Cu            13.54452062       9.42005127      12.21099946      -0.96697841      -0.52305985       1.34908100      -2.62178335
 Cu             9.14283899      12.34347092      12.66676390      -3.19879991      -1.11879874      -0.25089510      -2.49617119
 Cu            14.68151583      11.26072368      13.19546574       0.54604597      -0.08749350       1.05783822      -2.28762389
 Cu            13.77580007      12.87216456       7.48901202       2.10710374       2.72498050      -0.31117182      -2.42592040
 Cu             9.38412526      16.13846785       9.97758665       1.46223636      -0.71084018       0.62236340      -2.49864942
 Cu            13.25147468       9.09551045      14.37643195      -1.13957513      -0.10758806       0.56059290      -2.05632309
 Cu             7.59451310       9.16681604       8.57719227       1.23789513       0.24727697       1.28864721      -2.89165979
 Cu             7.29310556      11.43700507      10.43187739       1.03153139      -0.67279089       1.54654652      -3.58839358
 Cu            10.65482571      11.79394630      11.41277179       3.02450840      -2.29898515      -2.65992869      -2.82570892
 Cu             7.87654057      14.61576306      10.70884043      -1.98137372       0.97196316       1.72877167      -2.76507079
 Cu            12.56004116      13.39713838      12.34910989       0.20871118      -0.50580048      -2.06947656      -2.50619990
 Cu            11.69430620      12.65316791       7.86071552      -1.29272289      -1.24812032      -0.27890116      -3.09164650
 Cu            10.89373240       6.00000000      10.31210083      -0.86519626      -0.80095864       0.09155952      -2.27175057
 Cu            11.61884346      10.43624110       6.18070180      -0.08323662       0.80066777       1.03181193      -2.50308626
 Cu            10.75155374       8.66520968       7.95210753       0.11669879      -0.38421688      -2.31815391      -2.39329345
 Cu             6.08555108       9.17622288      11.82629791      -0.00958242       0.69053788      -0.19302199      -2.40244294
 Ni            14.28876679       8.09747654      10.86074292       0.79122244      -1.44524779      -2.51492730      -3.70241204
 Ni             6.89603686      12.80586038      12.25354325       0.38290504       2.06549878      -3.43140684      -3.30387720
 Ni            15.27428239      11.07839066       9.91943396       1.81433303      -0.83730997       0.95544390      -4.58753958
 Ni             6.00000000      11.79507163       8.86203905      -0.36381882       0.21788157      -0.88293329      -3.28021414
 Ni            12.13060934      14.78447042       7.98306882      -2.40960593       1.61495995      -0.53608490      -3.46057029
 Ni            10.06538575      11.38192404       8.46127116      -3.58876182       0.06467492      -0.42468621      -4.67295455
 Ni             8.55314443      15.14440373       8.15111036       1.62834028       1.81013632       0.19203092      -3.56121033
 Ni             7.03959885       7.45820119      10.57366301       0.94034107       1.08403954      -0.21518214      -3.85122953
 Ni            13.32267760      11.48316459       9.39507674      -3.03179634       2.73197981      -2.04636050      -3.62843420
 Ni            10.11886433      15.42670580      12.57694293      -2.41899023      -1.66239700       0.99917575      -3.65721525
