      50
 Properties=species:S:1:pos:R:3:forces:R:3:local_energy:R:1 Lattice="21.2465886031       0.0000000000    0.0000000000    0.0000000000   21.6276568377    0.0000000000    0.0000000000    0.0000000000   21.6168847358" energy=-227.735114 virial="-26.35867269          5.19457851      0.26306351      5.19457851    -32.58328589      5.23224751      0.26306351      5.23224751    -29.43502002" stress="0.00265358           -0.00052295     -0.00002648     -0.00052295      0.00328022     -0.00052674     -0.00002648     -0.00052674      0.00296328" volume=9933.259601
 Ni            12.03262148      12.45125820      11.00760081      -0.54961926      -0.46427180       0.44929298      -5.52810745
 Ni            13.25534263       9.25075869       7.72336358      -3.83966060       0.08288462      -1.59451538      -4.70402954
 Ni            13.72918583      11.57867597       7.44702539       0.25319399      -0.56960476       1.21032586      -4.39785683
 Ni             9.62222651      13.67403440      13.14414562      -1.20627879      -2.16032131      -0.91096557      -4.89753469
 Ni             8.35820927      11.40183674      12.08254132       0.83920680       0.33835530       0.05262806      -5.35576837
 Ni            11.87542964      15.62765684      10.72775229      -2.27117365       0.89404589       0.77534195      -4.24721077
 Ni             6.78461092      10.64892409       7.38340211       0.98885537       0.61672892       0.36680712      -4.65846966
 Ni             6.48714564      10.95505136      13.01427667      -0.63692083      -0.16840418      -0.37155844      -4.28963143
 Ni             9.87517623      11.33482454      10.41462151       2.71941385      -3.32391846      -0.02317775      -4.90109622
 Ni            13.46089935      12.58828262      14.64838657       2.04073152      -0.49597061       0.74053349      -4.08693926
 Ni            15.05848094       9.07187515       8.57671572       2.02752342       0.29623268       1.31217254      -3.66351926
 Ni             9.97596030      14.53306050       7.36077592       1.12035750      -1.18130123      -1.92227800      -4.10756725
 Ni            13.42591068      10.08221033      11.64336492       0.07446039       1.23551431      -0.41337194      -4.97897991
 Ni             9.23088064      13.28814099      10.32377079       0.32801305       0.37083843       0.07342726      -5.05225441
 Ni            10.79729212      15.41806220      12.90903499       0.98691021       0.63412390      -0.39767166      -4.35233539
 Ni             8.86817670      10.10135654       6.00000000      -0.78339765      -0.63740628      -0.17906056      -4.49139677
 Ni            11.84226309       8.52462229      11.60118985       0.30617560       0.08655549      -0.18265204      -5.18766599
 Ni             7.99170212      14.84196538      10.92599269      -1.65601829       1.34018782       2.02729737      -4.28919371
 Ni             6.51919469       9.20664058      10.98296280       0.83923618       1.49428287       1.14616514      -4.52682063
 Ni            12.15440074       7.64492558      14.00234390      -3.01197872      -0.20428125       0.27215641      -4.24453108
 Ni             8.69267211       7.81422451      10.81222518      -0.00453181       1.36261989      -0.14550373      -4.86691816
 Ni            10.22629163      10.40653360      14.56689451      -0.70404732       1.19676397       1.00567418      -4.69868879
 Ni             7.36168552       8.68097440       9.07330330       0.95593577       0.12347739      -1.28411875      -4.82730717
 Ni             9.03502299       8.49602794      12.90120564       0.87289089       0.97526023      -0.64849978      -4.90270638
 Ni            10.66064758       9.15516159       8.46322725      -1.21768588      -1.74185645      -0.29085193      -5.24561691
 Ni             9.56893770       8.35992959      15.03838059       0.66477302      -0.48894069       0.10003390      -4.18251071
 Ni            10.18539201      11.08889690       7.31915016       1.90951431      -0.66993024       2.25641380      -4.87017797
 Ni            13.41775218      14.30495746      10.42562741       2.72500105      -2.28405788      -1.49849738      -4.26393835
 Ni            15.24658860      11.95698420      10.24711275      -1.48024467       0.02514047      -0.15668045      -3.26270613
 Ni            12.59032605       6.23119201      10.24547878      -0.63203664       0.41588224       1.20839118      -4.25583479
 Ni             8.64800592      12.32651474      15.14775392       1.06113825      -0.55764026      -1.84673691      -3.85129932
 Ni            14.80913558       8.38094922      11.84649520      -1.02141981       0.11811007       0.41919563      -4.06346889
 Ni            10.90832660      10.35703350      12.55445791       0.26505170       0.45878416      -1.32075034      -5.54921343
 Ni             9.09573349       6.80318234       8.07942750      -0.23974381       2.22873982      -1.62345812      -4.15124163
 Ni             9.37421152       6.00000000       9.95191043       1.44951332      -1.74592454       1.98397855      -4.02547698
 Ni            11.88689015      10.79949473       9.08343036       0.95428152       1.37846487       0.49960141      -5.35193162
 Ni            12.25565322      10.53858022      15.61688474       0.29242499       0.14500927      -1.26575779      -4.40524697
 Ni            13.71091608       8.94546803      14.07876245       1.74664390       2.42276008      -1.03034960      -4.31103385
 Ni             6.00000000      11.63985529       9.87357407       0.91482211      -0.26766240       0.72066831      -4.68734593
 Ni            12.58047108       6.88561174       8.17939257      -0.47423582       1.57731005      -0.98166934      -4.28007390
 Ni            11.17608016       8.55150242       6.30039327      -0.02197801       1.16295697       1.41509074      -4.40591718
 Ni            12.00117421      11.58979345       6.05591651      -0.44475134      -1.16264630       0.57838911      -4.29254517
 Ni            11.61436736      12.87544196      13.90134820      -3.23924386      -0.45052933      -0.80832115      -4.83044912
 Ni             6.80251602      12.97689748       8.08790625       1.06425043      -0.84525468       0.25313305      -4.49682212
 Ni             8.07430514      11.03703192       9.23017358      -0.29220995      -0.33644276      -0.65380849      -5.41518704
 Ni            11.27025434       6.57726194      12.34132258      -1.73878055      -0.99001506      -1.20775105      -4.49141937
 Ni             6.49157197      13.21008784      12.00093867       0.92365397      -1.03158724      -0.69893247      -4.41330870
 Ni             8.98353791      12.47692736       6.31301437      -1.35142396       0.65950691       0.29397403      -4.51882578
 Ni            12.76773591      14.19128048      12.48861849      -0.53880121      -0.11563298       1.02287948      -4.75004235
 Ni             9.00448558      15.12657105       9.03175686      -0.96779066       0.25306405       1.27336708      -4.10695066
