      50
 Properties=species:S:1:pos:R:3:forces:R:3:local_energy:R:1 Lattice="21.1249590191       0.0000000000    0.0000000000    0.0000000000   21.1254839684    0.0000000000    0.0000000000    0.0000000000   21.1369211035" energy=-130.717923 virial="38.00588981         -10.92576728     -1.88083127    -10.92576728      7.08457544     10.36785101     -1.88083127     10.36785101     22.52449338" stress="-0.00402909           0.00115826      0.00019939      0.00115826     -0.00075105     -0.00109912      0.00019939     -0.00109912     -0.00238787" volume=9432.879108
 Cu            12.81124195       7.95402401       8.82705439      -2.07160656      -0.56443423      -3.59747008      -2.75373140
 Cu            12.09692663      14.91811043       8.31717118      -1.54361358       3.06234812      -2.46300953      -2.07982252
 Cu            13.30590798       9.04210935      13.32069110      -0.37701634       0.27209322      -1.18392452      -2.20890215
 Cu             9.22549096       6.55093046       8.75615058      -3.20496469      -0.32831372       1.29049911      -2.24903578
 Cu             8.58342320      14.97511261      12.89704343      -1.66886281       2.24480602       0.79478043      -2.12990829
 Cu             6.00000000      11.03730406      13.29711805      -3.15451624      -0.36686185       2.43681597      -1.94012537
 Cu            11.73096088       6.73871097      13.17477145       0.96453577       0.16500564      -1.09777602      -1.89370684
 Cu            11.74953718      14.37869200      10.39417602      -2.75201650       2.45494676       2.10487435      -1.81861024
 Cu            11.10235192       9.17125141      11.96159686       0.48216871       0.35573046      -0.15519187      -2.99476316
 Cu            11.11432985      11.60049651      12.40237450      -0.53179163      -2.55388059       1.54395205      -2.94139219
 Cu            10.15355498      13.24124747       6.00000000      -0.84760007      -0.28351205       1.03122898      -2.10627958
 Cu             6.86463199      10.30315525      11.59081737      -1.89157262      -2.85292568      -0.10787992      -2.26441887
 Cu             8.67501964      10.92290181       6.03982570       2.63570578       0.13177672      -2.24705258      -2.20502705
 Cu            10.75320904      12.52656895      10.28859851      -0.60497242      -2.68692359      -0.93768537      -2.82056081
 Cu             8.29392716      12.30617023       9.91524752       0.13558478       1.37056706       3.26944749      -2.62467143
 Cu            10.38816585      10.69026161      15.13692110       0.04341911      -0.30286865      -0.71865020      -2.39319579
 Cu             6.42467486      10.51052237       9.63362334      -1.51763509       1.15095599      -4.18332450      -2.43725261
 Cu            13.50952386      15.02026749      11.24930373       1.64541011      -0.20019418       1.15853223      -2.38778630
 Cu            13.37905888      11.89474489      11.72569833       0.65851725      -0.97683321      -2.16201250      -2.94425364
 Cu            11.37037837      10.58553511       8.33171284       0.27073822       0.29838037       3.10264907      -3.18477036
 Cu             7.13591686       7.26919942      10.63700505       1.18927754       0.92301282      -0.04551006      -2.05830138
 Cu            10.16265991       6.00000000      10.74852528       0.40634012       1.01080998       1.09574745      -2.43904440
 Cu            12.20156026      13.48495146      12.73386296      -0.53016488       2.42551359      -0.43519759      -2.01379121
 Cu             8.82595429       8.72467011      14.94968318      -0.53672052       1.16681166       0.04501619      -2.17268215
 Cu            14.80312900      12.05275556       8.85910944      -0.06286310      -0.70062061       0.46046755      -2.10584897
 Cu             7.70112751      15.08168751       9.55007846      -3.94028423       1.15721485       1.18798758      -2.03456036
 Cu             7.16219557      12.73857200      13.97273047       1.24620881       1.57099400       0.02753626      -2.39034994
 Cu            10.86599375      15.12548397      13.43893180      -0.32430961      -0.16744702       0.05581494      -2.34508030
 Cu            12.25841282       8.78064884       6.73985075       3.57747698      -0.98588416      -0.58010060      -1.84801495
 Cu             9.62086263      14.62296517       9.16485453       4.28169916      -1.53287464      -1.13535018      -2.80657373
 Cu            13.79139749      12.53365145      13.86114921       0.25545213      -0.47080478       1.22284254      -2.36885229
 Cu             9.72430416       7.70804287      13.20066900      -1.03056512      -0.45532371      -1.14885350      -2.68342376
 Cu             9.48705948      11.90973520       8.16085461       0.91255998       0.99884730      -2.03003940      -2.96116889
 Cu             8.82726608      10.41642990      10.89536401       4.51317149      -0.94928689       1.19593781      -3.01550589
 Cu            15.12495902      10.55669483      10.85395205       0.90428890       1.65197330       1.72799999      -2.39404939
 Cu            10.71495988       8.31113693       9.70490457      -0.39660861       1.01109604       2.05430379      -2.93157379
 Cu            10.75743390       7.55017800       7.72268569       0.52609027      -1.06993577      -2.24772771      -2.31905324
 Cu             9.49451761      13.23180463      12.19744050       0.52623025      -1.75642408      -0.08855580      -2.91132001
 Cu             8.45298452       9.94988364       8.73735741       0.95218300      -1.05883826      -1.68479473      -3.13050541
 Cu             6.94403444       8.33161495      13.30276458       0.36617459       0.66310173      -0.77539796      -2.55661315
 Cu            12.78637304      13.14066775       9.04398621       2.30271570      -5.05826432      -0.06758347      -2.56382975
 Cu            13.18071867       7.14682241      10.85427087      -1.00053887       0.30838488       2.75480301      -2.45687549
 Cu            10.33143587       9.52965442       6.72178467      -3.78476643       0.57202630      -0.90003638      -2.66485274
 Cu            11.03101060      13.05537446      15.00815082       0.04058782      -0.14933913      -1.25509599      -2.46426056
 Cu            13.13355482      10.83731151       7.09667899       1.66922758       0.54596303      -0.31546489      -2.54418828
 Ni             8.16083709      10.45557595      13.21674517       3.51847148      -0.18347373       2.33304347      -4.39891436
 Ni            14.22997354       9.07228319       9.75404369       0.67047097       0.04980976      -0.48064117      -3.43576167
 Ni             6.84485311      13.12483700       8.67980976      -1.60827866      -0.08274727      -2.15386122      -3.96711199
 Ni             7.79124053       8.23021887       7.52367574       1.35795769       0.23004769       0.41648153      -4.14794459
 Ni             6.99523999      11.22654890       7.10016763      -2.67139561      -0.05420517       2.88742593      -4.20965591
