      50
 Properties=species:S:1:pos:R:3:forces:R:3:local_energy:R:1 Lattice="21.3255034072       0.0000000000    0.0000000000    0.0000000000   21.6582330954    0.0000000000    0.0000000000    0.0000000000   21.7485566052" energy=-118.600341 virial="8.90825759           -4.48119931     -8.00712797     -4.48119931      3.83990490     -4.51437081     -8.00712797     -4.51437081     12.20973032" stress="-0.00088683           0.00044611      0.00079712      0.00044611     -0.00038227      0.00044941      0.00079712      0.00044941     -0.00121550" volume=10045.065075
 Cu             8.26889263      10.57440035      11.37427215       2.71705120      -1.26580934       0.45948504      -2.65215485
 Cu            13.28945272      10.43895083       9.11361841       1.60415719       4.05070221       3.85557903      -2.28723454
 Cu             9.67682480       6.89830004       9.91218800       1.31908439       0.35932861       1.88847013      -2.23662846
 Cu            12.81541838      11.77989149      14.13612049      -3.87287597       1.44726312       0.46845656      -2.33377640
 Cu            12.38277501      11.82168408       6.00000000      -0.65732020      -0.38251624       1.18797210      -1.91053350
 Cu             8.96276607      12.75971683      10.06982066       0.86523502       0.64524592       0.55587882      -3.38872085
 Cu            14.38222880      13.19929784       9.58258216      -0.01193127      -0.42093272       0.83239730      -2.27452215
 Cu             8.72918491      11.84372329      13.45188226      -2.40386354       6.04404762      -1.04847225      -1.39109245
 Cu            13.50616459       6.75153764      10.24407739       2.56188490       1.86209375      -0.64913543      -2.12177482
 Cu             7.18970906       8.09017094      10.38527880      -0.45669993       2.05184802      -0.65296350      -2.75611158
 Cu            13.08606447       8.32428903      12.38353885      -1.00088494      -1.11981517       1.13312778      -2.59071543
 Cu             9.82217646      10.38274944      14.32671266       2.35681821      -4.35178637       0.95641600      -2.15518873
 Cu            12.21123980      10.24907615      11.43861827       1.15446900       0.81894652       0.15176090      -3.10973822
 Cu             7.31470101      12.39015517      11.92590291      -1.71736358       0.83082314      -0.87633673      -2.38046458
 Cu             7.22118327       8.08730928      12.97918207      -1.24914885       0.55197961      -1.81648791      -2.29669370
 Cu            12.90077803       9.33603444      14.98792808      -0.04991924       0.80395538      -1.39499364      -2.03876945
 Cu            15.32550341      11.81984497      11.76924164      -0.50905757       0.13477657      -1.11191278      -2.22952337
 Cu            10.63183426      10.03114129       6.58983310       0.08997453       0.29856338       1.71564670      -2.58267522
 Cu            10.20514042       7.26985140       7.96080876       0.64061156       1.60693141      -3.26177510      -2.15866278
 Cu            10.17810619      15.05286579       7.72356411      -0.34196469       3.73322342       1.28934575      -1.93974321
 Cu            10.41294493       6.50156149      13.18609563      -0.20924876       0.74959904      -0.95730550      -2.32928062
 Cu            13.27758807      14.71444516      13.38544242      -0.65801611      -0.55623927       0.44735803      -2.09886595
 Cu             6.28236115      10.24825553       8.61043006      -3.49599624      -2.09746903      -3.23924235      -1.93303197
 Cu             8.07791739      11.28019812       8.60976849       2.96550994       5.55450275       2.02769309      -2.25299043
 Cu            11.73606796      13.98596082      11.62020744      -0.24719861      -1.70840181       1.28165260      -2.64724930
 Cu            12.05003307      13.17357208       9.21453866      -0.52570774       0.49688936       0.12794356      -3.06512827
 Cu             7.12099678      14.45408692      12.44944138       0.69790828       1.44402293       0.04577067      -2.10502776
 Cu             6.00000000      12.87401973       9.71928750       1.15988452      -0.28853677       0.13501553      -2.74434361
 Cu            13.46075355       9.82258538       7.17094036      -0.19702033      -0.18942698      -4.21547153      -2.05932825
 Cu            11.77139154       6.00000000      11.06567910      -2.94908459      -0.18389312       1.70839814      -2.19200409
 Cu            10.42340305      13.07773883       7.52427338       2.16359361      -5.47176143      -0.69568914      -2.32591031
 Cu            10.08069829       9.32210310      11.15428098       0.82052254      -2.11579688      -0.23426547      -3.47856628
 Cu            14.85448926       8.80098718      11.13647598      -0.17811684       1.06708966      -0.66365897      -2.10081717
 Cu             9.54240147      15.54846707      11.79247683       0.42221184      -0.66805918       0.02493185      -2.42966333
 Cu             9.42871510      13.68332839      14.90896605      -0.79780573      -0.13248122      -1.43031137      -2.28841367
 Cu             6.34494441      10.68787264      10.59405420      -2.48358332       0.67689046       2.31001984      -2.05751709
 Cu             8.27678018       6.56210726      11.47146336      -0.31465350      -1.10697632       2.79101068      -2.19985308
 Cu            10.44583616      11.68349588      12.39441783       3.93923799      -0.06509563      -2.42153644      -2.79008322
 Cu             8.31170771       9.20413339       8.49631008       2.09730993      -4.02430607       0.20440328      -2.77935414
 Cu            11.05460759      10.98290251       9.48817560      -1.76527486      -0.02124388      -0.69244141      -3.18474425
 Cu            12.48036579       8.52505666       8.69856798      -2.17999125      -2.75248107       0.26175030      -2.69546064
 Cu            10.44491177      11.90170702      15.74855661       0.85375496      -0.02730146       0.20269067      -2.14858338
 Cu            11.94669089      15.65823310      10.29917959      -0.11914603       0.82487604      -0.97158501      -2.21934980
 Cu             8.78646098       7.98033610      14.41091447       1.98665618      -0.03524173       1.01124869      -2.11567025
 Cu             8.15521570      15.33709394       9.83009354      -0.01393017      -0.99173883      -0.36450145      -2.43110009
 Cu            14.14360753      14.86250031      11.36834777      -0.04872295      -0.47537124      -1.00876136      -2.20484377
 Cu             8.32674905      13.61151233       7.45866364      -1.59433246      -0.12226727       0.59478358      -2.38708088
 Cu             7.61986968      10.91525845      14.83445143      -2.04931459      -2.02874223       3.10478296      -2.28218281
 Cu            14.61141670      10.88517991      13.67266007       1.63305002      -2.86327399      -0.48105575      -1.92580300
 Cu             7.67132273      10.65463968       6.66847530       0.04924808      -0.58663365      -2.58608648      -2.29336981
