      50
 Properties=species:S:1:pos:R:3:forces:R:3:local_energy:R:1 Lattice="21.9666883256       0.0000000000    0.0000000000    0.0000000000   20.9700718012    0.0000000000    0.0000000000    0.0000000000   21.3613724279" energy=-215.159918 virial="-16.76906982          2.46155523     -5.14765146      2.46155523     -8.14718863      9.44883082     -5.14765146      9.44883082    -18.21347370" stress="0.00170418           -0.00025016      0.00052314     -0.00025016      0.00082797     -0.00096025      0.00052314     -0.00096025      0.00185097" volume=9839.967351
 Cu             6.00000000      10.79069052       9.97901629       0.80160034      -0.70075218      -0.31166840      -2.21375896
 Cu             8.48808485      10.87938818      11.25423571      -0.56859968       0.82806185      -0.39387824      -2.97101431
 Cu            10.76171651      12.83921815      12.07262903       0.46904837      -0.76636487       0.24917032      -3.27015024
 Cu            14.58249947       7.98782637      12.48499054       0.05381908      -6.01184791      -0.73357364      -1.93721326
 Cu             9.40571244       9.51935148       8.51131157      -4.79297768      -1.16579832       4.67372137      -2.63996892
 Ni             7.80068299      10.72871608       7.04118131       0.37789964       1.48657844       0.47675455      -4.43396067
 Ni             9.67477250      14.86032227      11.55795631       2.66247596       1.49272564       0.77579803      -4.22845105
 Ni             8.56496948      14.57015503       9.74970117       0.85524746       1.24357871      -1.05154495      -4.21351957
 Ni            12.79865637       8.55058760      13.66660815      -2.76443752       0.83794582       0.42193631      -4.96748334
 Ni            14.77190856      12.71966596       7.97987326      -0.29696276      -1.09122204       0.82529304      -4.09499345
 Ni            10.44937867       7.91160002      14.02662000       1.61168887       0.82462060      -0.94066803      -3.70187062
 Ni            12.63185889      10.23027639       8.32653621       1.49389124       1.99821031       3.22524868      -5.08817095
 Ni            14.83686579       8.43181665       8.31097601      -1.12091501      -2.01717925       0.62226253      -4.34799001
 Ni            11.29749026      11.35118141      15.15440659       0.26814644       3.26678660      -1.96906778      -4.26550074
 Ni            10.66156066      11.17548411       8.39744571       1.25649391       2.71488921      -0.70357211      -5.17524443
 Ni            13.01611140       6.00000000       9.56610452       1.03475647      -0.19180455      -0.91176134      -4.28560287
 Ni             8.25699889      11.88011506      13.71388611       0.33421205       0.57589912      -1.38115913      -4.34765107
 Ni             8.52063651       6.94862094       8.50923530       1.00646539       0.68186566       0.77987725      -4.75747361
 Ni            10.64192040       8.33542647      10.71057394      -0.48400760       0.48859207       0.37348722      -5.51328299
 Ni            10.39731967       9.07030898       6.76963667      -1.81339910       0.75963354      -6.50813381      -4.41047235
 Ni             7.19770057       8.01175010      12.33236256       0.55257373       0.66362345      -0.55568804      -4.37242320
 Ni            10.93084322       6.43175211       9.54895522      -2.29454420       0.08677826       0.25190773      -4.85328776
 Ni            13.71793841      13.73944675      11.75132260      -1.32085575      -0.95228868       0.00972734      -3.93625305
 Ni            11.70757770      13.63552589       6.94098844       0.37655500      -0.70968804       0.51938436      -3.76933777
 Ni            14.82649533       9.05597669      10.76030218       0.74411899       3.95351184      -3.17315166      -4.82629178
 Ni            10.08348261      13.39220437       8.29147121      -0.47466223       0.19499746       0.64081476      -4.60351514
 Ni            14.81315238       9.56992112      13.75330595       1.23378263       3.09063309       2.86176385      -3.84831339
 Ni            15.96668833      11.53306342      10.01728320      -0.82518648      -0.15601266      -0.30604419      -4.42642142
 Ni            12.83660189      10.91945522      10.93645561      -0.13369715      -0.44948421      -1.27751658      -5.36528733
 Ni             9.95539588      13.94130148      14.05115303      -1.11931407      -1.00635276      -0.80221159      -4.34214913
 Ni            11.36799887       8.46822874       8.41222538       1.97664062      -3.05801689       3.07425494      -4.76885493
 Ni            12.10931746      13.42309631      14.18303190       0.83092759      -0.84031547      -0.86122760      -4.28931842
 Ni            12.53878637       9.33110717       6.50089678       1.34608938      -1.45810613      -2.14601777      -4.50370695
 Ni             6.68335105       8.27698205       9.80446873       1.13133919       0.21574627       0.39055149      -4.75715761
 Ni            13.35182191      11.13647127      13.01788819      -1.02248597       0.72965352       0.87121455      -5.12639237
 Ni            10.60795986      10.30248128      12.24338863       1.00333502      -0.89039362       0.89536540      -5.20238569
 Ni            14.80820400      10.47524548       8.35122284      -0.05500720       2.64607307       0.00924950      -4.57867315
 Ni            15.56611571      11.10375254      12.26954847      -0.80862711      -0.15759590      -0.61359438      -4.63934061
 Ni             7.14005809      13.05728271       9.82067089      -1.08833970      -2.21731602       0.17177483      -4.37345788
 Ni            11.18477364       9.33124566      15.36137243       0.07627571      -1.33862906       0.83408205      -4.08793322
 Ni            12.92052857       8.13782404      10.04677056      -0.15982607       0.47251720       0.28778307      -5.51658343
 Ni            10.99385657       6.20405336      13.13328077       0.93895671      -1.83153889      -2.00915530      -3.89665873
 Ni            11.69186951       6.39760839       7.38936020       0.13576778       0.73651777       0.71132696      -4.47579247
 Ni            12.15520319      14.97007180       9.65769618      -0.68774177      -1.44871438       0.28406253      -3.68922467
 Ni             6.19593134      10.45916242      12.28551286       1.58311820      -0.41189963       0.03401641      -3.98065173
 Ni             8.64480047       8.59849473      14.59813320      -2.58657379       1.24988421       0.12787425      -4.06868992
 Ni             8.64427680       6.31467754      10.83018624       0.29190634       1.55365543      -0.42382331      -4.40783361
 Ni             9.57757512      11.52966669       6.00000000       0.91898504       0.05265954       1.11905772      -4.42918670
 Ni             7.67774885       8.65904258       7.21436481      -0.22248672      -1.52239525       0.52683981      -4.23690839
 Ni             8.18771550      13.44838344      11.85416325      -0.72546958      -2.45192200       1.02885699      -4.92411405
