    5000
 Properties=species:S:1:pos:R:3:velocities:R:3:forces:R:3:local_energy:R:1:fix_atoms:S:3 Lattice="60.0442190501       0.0000000000    0.0000000000    0.0000000000   60.0443190876    0.0000000000    0.0000000000    0.0000000000   59.7873545727" temperature=0.00000000 pressure=22.61219242 time_step=1.0000 time=82.000000 energy=-17966.787122 energy_soap=-10579.22056924  energy_2b=-6313.95450324 energy_3b=0.00000000 energy_core_pot=0.00000000 energy_vdw=0.00000000 energy_exp=0.00000000 energy_xps=0.00000000 virial="10.37068906          14.25776022      4.74900362     14.25776022      3.46743292     -6.76449724      4.74900362     -6.76449724     -4.71158539" stress="-0.00004811          -0.00006615     -0.00002203     -0.00006615     -0.00001609      0.00003138     -0.00002203      0.00003138      0.00002186" volume=215552.201292 step=82
 Cu             7.03766728      33.67160814      25.01042702       0.00000000       0.00000000       0.00000000       0.00221085       0.00220108      -0.00131217      -3.06164469 F F F
 Cu            13.57262191      24.53431661      31.81703109       0.00000000       0.00000000       0.00000000      -0.00034783       0.00089000       0.00116610      -3.71965593 F F F
 Cu            33.66281225      28.58603130      17.57216817       0.00000000       0.00000000       0.00000000      -0.00052668      -0.00033192       0.00123843      -3.74700514 F F F
 Cu            23.10915370      15.81437230      38.60212517       0.00000000       0.00000000       0.00000000      -0.00090691      -0.00224597      -0.00037015      -3.72883816 F F F
 Cu            22.87711241      27.10683307      48.09746497       0.00000000       0.00000000       0.00000000       0.00015605      -0.00168485       0.00056383      -3.73267864 F F F
 Cu            36.05807799      24.76668713      21.63154253       0.00000000       0.00000000       0.00000000      -0.00082752       0.00011446       0.00128104      -3.72637642 F F F
 Cu            31.43786796      38.92117946      42.73905709       0.00000000       0.00000000       0.00000000      -0.00125671      -0.00126508      -0.00003581      -3.77652598 F F F
 Cu            19.11255100      29.64452885      42.55764874       0.00000000       0.00000000       0.00000000       0.00029142      -0.00059254       0.00072182      -3.73510003 F F F
 Cu            34.82062889      41.88819891      38.55663021       0.00000000       0.00000000       0.00000000      -0.00099662      -0.00136109       0.00012859      -3.73297442 F F F
 Cu            19.78993789      43.82388778      33.28685333       0.00000000       0.00000000       0.00000000       0.00004220       0.00046278      -0.00042145      -3.73751912 F F F
 Cu            52.32351771      22.69554784      32.58384752       0.00000000       0.00000000       0.00000000       0.00413702       0.00261510      -0.00102293      -3.18274569 F F F
 Cu            27.03101606      32.14429220      36.87074220       0.00000000       0.00000000       0.00000000      -0.00023280      -0.00213490       0.00109238      -3.72138623 F F F
 Cu            22.63805704      32.67854435      32.73056154       0.00000000       0.00000000       0.00000000      -0.00007528      -0.00089487       0.00173857      -3.71311595 F F F
 Cu            21.13087412      38.87450782      23.88945462       0.00000000       0.00000000       0.00000000      -0.00128087      -0.00055825      -0.00359327      -3.74225026 F F F
 Cu            42.83613407      22.09257896      40.77911094       0.00000000       0.00000000       0.00000000       0.00049890      -0.00003607      -0.00210466      -3.72301657 F F F
 Cu            21.25633578      17.42300817      34.02910642       0.00000000       0.00000000       0.00000000      -0.00155804      -0.00149104      -0.00006524      -3.73805786 F F F
 Cu            36.63285752      41.95589202      26.22591878       0.00000000       0.00000000       0.00000000      -0.00049050      -0.00215598       0.00060855      -3.73106398 F F F
 Cu            44.40709846      34.34913013      24.15226231       0.00000000       0.00000000       0.00000000      -0.00118245       0.00168154       0.00140892      -3.77322276 F F F
 Cu            19.65120737      22.93250780      31.74511912       0.00000000       0.00000000       0.00000000      -0.00125801      -0.00034990       0.00069120      -3.74511617 F F F
 Cu            38.27960783      32.08862861      26.72779256       0.00000000       0.00000000       0.00000000       0.00085517      -0.00041505       0.00139264      -3.73360460 F F F
 Cu            20.46151182      40.92541383      38.91682292       0.00000000       0.00000000       0.00000000       0.00057339       0.00204211       0.00103334      -3.73679195 F F F
 Cu            43.35968688      40.35540697      36.99034105       0.00000000       0.00000000       0.00000000       0.00044942       0.00077084      -0.00034079      -3.72102002 F F F
 Cu            34.99293547      19.19352166      15.44646074       0.00000000       0.00000000       0.00000000      -0.00178081       0.00129634       0.00051783      -3.71893438 F F F
 Cu            40.70355896      16.94155595      13.78930545       0.00000000       0.00000000       0.00000000      -0.00106467       0.00274014       0.00070210      -2.91326767 F F F
 Cu            33.15259839      34.74816250       5.95526977       0.00000000       0.00000000       0.00000000       0.00161447      -0.00026795       0.00061917      -3.48003728 F F F
 Cu            30.14598728      46.76655142      33.42386066       0.00000000       0.00000000       0.00000000      -0.00042713      -0.00055342      -0.00019979      -3.70343772 F F F
 Cu            46.14863518      22.72943214      46.90883325       0.00000000       0.00000000       0.00000000       0.00232606      -0.00067833      -0.00050619      -3.04743387 F F F
 Cu            33.80319745      45.30724152      27.75782390       0.00000000       0.00000000       0.00000000      -0.00058804      -0.00191896       0.00014363      -3.70108820 F F F
 Cu            33.06027188      42.84092994      40.10687550       0.00000000       0.00000000       0.00000000      -0.00173239      -0.00137846      -0.00092033      -3.78062194 F F F
 Cu            45.32844232      19.04719271      36.28045289       0.00000000       0.00000000       0.00000000       0.00098245       0.00074773      -0.00013434      -3.73110322 F F F
 Cu            41.62912935      41.05292182      43.79851158       0.00000000       0.00000000       0.00000000       0.00187968       0.00293406      -0.00131166      -3.69357723 F F F
 Cu             8.70344491      31.78079550      38.31991521       0.00000000       0.00000000       0.00000000       0.00044141       0.00166617       0.00196861      -3.44569164 F F F
 Cu            34.85858194      17.91828410      29.14439578       0.00000000       0.00000000       0.00000000      -0.00251602      -0.00011640      -0.00155895      -3.75247042 F F F
 Cu            15.82970312      16.97856160      18.62272007       0.00000000       0.00000000       0.00000000       0.00045753       0.00019176      -0.00020642      -3.59472444 F F F
 Cu            16.61905188      14.57115810      18.82575793       0.00000000       0.00000000       0.00000000       0.00052134       0.00013671      -0.00049329      -3.12538274 F F F
 Cu            36.45746302      12.45230006      31.54991228       0.00000000       0.00000000       0.00000000       0.00226389      -0.00005206       0.00367824      -3.58088738 F F F
 Cu            36.85307992      13.69965969      17.64756597       0.00000000       0.00000000       0.00000000      -0.00176163       0.00187036      -0.00015468      -3.56990101 F F F
 Cu            28.54608836      27.96885352       5.80029467       0.00000000       0.00000000       0.00000000       0.00108283       0.00063284      -0.00140256      -3.03158813 F F F
 Cu            42.98659678      27.99362906      26.29497870       0.00000000       0.00000000       0.00000000       0.00153066      -0.00007869       0.00092476      -3.72420237 F F F
 Cu            33.79311582      44.84630588      33.20822603       0.00000000       0.00000000       0.00000000      -0.00098448      -0.00136609       0.00053351      -3.73378448 F F F
 Cu            40.29381933      23.96798176      12.97706403       0.00000000       0.00000000       0.00000000       0.00026016       0.00083363       0.00159394      -3.60490733 F F F
 Cu            39.68079887      28.07407792      43.02959701       0.00000000       0.00000000       0.00000000       0.00312764      -0.00120060      -0.00028997      -3.74315455 F F F
 Cu            37.60790710      30.64686350      24.79405455       0.00000000       0.00000000       0.00000000       0.00052296       0.00007193       0.00125648      -3.72569577 F F F
 Cu            48.13992590      36.15077150      36.48720768       0.00000000       0.00000000       0.00000000       0.00157100       0.00143821       0.00014913      -3.70575525 F F F
 Cu            29.41867816      29.32176279      10.02805243       0.00000000       0.00000000       0.00000000       0.00026782      -0.00025959      -0.00072268      -3.74704900 F F F
 Cu            29.40730487      30.44509380      46.36427454       0.00000000       0.00000000       0.00000000      -0.00112768      -0.00337138       0.00021429      -3.69383347 F F F
 Cu            23.01507852      31.59677559      49.76513543       0.00000000       0.00000000       0.00000000       0.00036696      -0.00092450      -0.00056745      -3.78184451 F F F
 Cu            15.85808707      36.53473319      38.92570090       0.00000000       0.00000000       0.00000000       0.00061468       0.00136482       0.00146604      -3.75464976 F F F
 Cu            45.29043627      44.40985119      31.81910228       0.00000000       0.00000000       0.00000000       0.00062063       0.00062465      -0.00055295      -3.41040572 F F F
 Cu            23.83046573      24.14935441      18.17777787       0.00000000       0.00000000       0.00000000      -0.00083234       0.00000416       0.00079654      -3.71486978 F F F
 Cu            21.23814370      23.40185997      17.89125778       0.00000000       0.00000000       0.00000000      -0.00175906      -0.00029924      -0.00085262      -3.75656308 F F F
 Cu             5.90383101      27.47757293      27.43348155       0.00000000       0.00000000       0.00000000       0.00138738       0.00281667      -0.00025427      -3.22017006 F F F
 Cu            35.04315537      25.87726342      35.84846740       0.00000000       0.00000000       0.00000000      -0.00219437      -0.00152226      -0.00007691      -3.71257050 F F F
 Cu            45.56477886      30.14842991      40.11883258       0.00000000       0.00000000       0.00000000       0.00145335       0.00024583      -0.00148102      -3.74366400 F F F
 Cu            38.61539832      16.95889852      20.97387671       0.00000000       0.00000000       0.00000000      -0.00161769       0.00155537       0.00016346      -3.74692936 F F F
 Cu            11.78073242      42.19385414      29.80762409       0.00000000       0.00000000       0.00000000       0.00126386       0.00029991      -0.00003128      -3.31955181 F F F
 Cu            11.88254428      41.25174366      41.91021613       0.00000000       0.00000000       0.00000000       0.00116262       0.00262607       0.00037269      -3.01132329 F F F
 Cu            28.60325861      22.52787963      34.23648702       0.00000000       0.00000000       0.00000000      -0.00155087      -0.00127137      -0.00054643      -3.72994277 F F F
 Cu            18.50187966      37.58827342      35.74212997       0.00000000       0.00000000       0.00000000       0.00084864       0.00070700       0.00175158      -3.74556462 F F F
 Cu            16.55528644      34.58386817      26.57889612       0.00000000       0.00000000       0.00000000      -0.00084409       0.00015712       0.00110168      -3.75001646 F F F
 Cu            34.54536971       9.17827821      25.69375727       0.00000000       0.00000000       0.00000000      -0.00072565       0.00057849      -0.00091706      -3.76832779 F F F
 Cu            26.74918830      28.93823268      23.17205036       0.00000000       0.00000000       0.00000000       0.00036544      -0.00010179       0.00233936      -3.73587607 F F F
 Cu            35.87696624      35.81026611      25.30121673       0.00000000       0.00000000       0.00000000      -0.00063553      -0.00008754       0.00047859      -3.72257291 F F F
 Cu            22.37687989      34.46971024      47.20168347       0.00000000       0.00000000       0.00000000       0.00111638       0.00030733      -0.00081478      -3.69562554 F F F
 Cu            33.31189609      27.80367503      26.01381444       0.00000000       0.00000000       0.00000000      -0.00081967      -0.00038489       0.00075733      -3.77015487 F F F
 Cu            41.56575493      17.65943391      23.68343779       0.00000000       0.00000000       0.00000000       0.00002889       0.00159509      -0.00035074      -3.73950512 F F F
 Cu            33.01447113      34.90168039      25.23355217       0.00000000       0.00000000       0.00000000      -0.00106224      -0.00154113       0.00089553      -3.77013992 F F F
 Cu            12.89107698      26.73664126      38.02666699       0.00000000       0.00000000       0.00000000       0.00018370      -0.00040684       0.00203152      -3.74721990 F F F
 Cu            39.31663344      34.93500814      50.47717831       0.00000000       0.00000000       0.00000000       0.00004897       0.00183236      -0.00303059      -3.48772178 F F F
 Cu            11.53056853      17.29494106      23.67119551       0.00000000       0.00000000       0.00000000       0.00077796       0.00051078       0.00016937      -3.11539153 F F F
 Cu            30.66659408      31.09844748      27.80628087       0.00000000       0.00000000       0.00000000       0.00181103      -0.00050350       0.00299837      -3.75458002 F F F
 Cu            26.01273015      43.23686688      21.61867816       0.00000000       0.00000000       0.00000000       0.00068200      -0.00121548      -0.00003306      -3.68677742 F F F
 Cu            33.72353310      21.67394945      44.22336285       0.00000000       0.00000000       0.00000000      -0.00005504      -0.00071171       0.00006490      -3.70995810 F F F
 Cu            26.04916820      30.26570918      38.18727746       0.00000000       0.00000000       0.00000000      -0.00019327      -0.00275281       0.00054999      -3.72917698 F F F
 Cu            38.50728997      32.26125865       7.55761091       0.00000000       0.00000000       0.00000000       0.00178141       0.00011974       0.00150628      -3.41375603 F F F
 Cu            20.90644182      33.85408874      34.08231676       0.00000000       0.00000000       0.00000000       0.00003323      -0.00052165       0.00185196      -3.73775319 F F F
 Cu            38.97252813      12.73598736      18.72143700       0.00000000       0.00000000       0.00000000      -0.00152353       0.00214596      -0.00012478      -3.64023616 F F F
 Cu            34.26050535      35.50061459      40.93820237       0.00000000       0.00000000       0.00000000      -0.00072014      -0.00172779       0.00038687      -3.73343828 F F F
 Cu            16.08714322      25.77975747      26.03961772       0.00000000       0.00000000       0.00000000      -0.00006041       0.00135678       0.00020551      -3.70248996 F F F
 Cu            32.85837085      24.25884232      44.41203274       0.00000000       0.00000000       0.00000000      -0.00091354      -0.00108738       0.00038110      -3.73746874 F F F
 Cu            45.43138552      40.26758230      30.08325420       0.00000000       0.00000000       0.00000000       0.00047743       0.00047197       0.00081472      -3.75090147 F F F
 Cu            24.66707829      35.96658243      35.83217354       0.00000000       0.00000000       0.00000000       0.00030903      -0.00167511       0.00134997      -3.72567623 F F F
 Cu            38.85184125      26.06197322      47.31781870       0.00000000       0.00000000       0.00000000       0.00314695      -0.00051568      -0.00114681      -3.77247236 F F F
 Cu            11.93309236      42.40213560      21.12775400       0.00000000       0.00000000       0.00000000       0.00334327      -0.00054267      -0.00294580      -3.14925943 F F F
 Cu            42.24842667      30.50675754      26.53474035       0.00000000       0.00000000       0.00000000       0.00118917       0.00020927       0.00098408      -3.76161130 F F F
 Cu            14.21286516      17.05188364      32.71619565       0.00000000       0.00000000       0.00000000      -0.00008532      -0.00089511      -0.00062378      -3.60979366 F F F
 Cu            39.32165265      23.54897445      43.97865904       0.00000000       0.00000000       0.00000000       0.00207839      -0.00005571      -0.00051750      -3.71323339 F F F
 Cu            23.84899271      28.97454522      46.76188341       0.00000000       0.00000000       0.00000000      -0.00068115      -0.00098011       0.00049060      -3.70929716 F F F
 Cu            21.01436579      34.93208511      19.14194052       0.00000000       0.00000000       0.00000000       0.00309544       0.00006985      -0.00039635      -3.71258640 F F F
 Cu            24.69778069      21.25054710      20.67683974       0.00000000       0.00000000       0.00000000      -0.00258336      -0.00072129      -0.00035595      -3.73437526 F F F
 Cu            52.68687325      32.67571916      25.37845082       0.00000000       0.00000000       0.00000000       0.00160117       0.00273982       0.00229135      -3.20298972 F F F
 Cu            29.25545265      40.39470155      33.13774573       0.00000000       0.00000000       0.00000000      -0.00143347      -0.00093876       0.00064417      -3.74694221 F F F
 Cu            42.36719981      26.69594233      21.71528173       0.00000000       0.00000000       0.00000000       0.00008408       0.00075775       0.00102403      -3.73591351 F F F
 Cu            30.94312433      19.68304334      10.51100271       0.00000000       0.00000000       0.00000000      -0.00060938       0.00185075      -0.00059795      -3.59100076 F F F
 Cu            50.30929275      19.96298633      24.18165736       0.00000000       0.00000000       0.00000000       0.00191949       0.00282054       0.00089544      -3.23938006 F F F
 Cu            20.86547447      28.44209690      41.19381342       0.00000000       0.00000000       0.00000000       0.00009429      -0.00211354       0.00140218      -3.73020336 F F F
 Cu            12.25240144      33.89867083      40.16713908       0.00000000       0.00000000       0.00000000       0.00024389       0.00224535       0.00184900      -3.74082217 F F F
 Cu            41.06013669      37.21956435       9.85954058       0.00000000       0.00000000       0.00000000       0.00183894      -0.00052827       0.00187233      -3.33417276 F F F
 Cu            18.55969148      16.80811160      31.19669373       0.00000000       0.00000000       0.00000000      -0.00049641      -0.00193131      -0.00024052      -3.76076956 F F F
 Cu            12.80340142      43.17419377      40.46830980       0.00000000       0.00000000       0.00000000       0.00122790       0.00264958       0.00044275      -3.19846288 F F F
 Cu            39.12157147      46.29295663      14.70773667       0.00000000       0.00000000       0.00000000       0.00131152      -0.00123798       0.00080897      -3.12263131 F F F
 Cu            17.92035640      25.86116382      12.21181173       0.00000000       0.00000000       0.00000000      -0.00022571       0.00001143      -0.00084851      -3.66290040 F F F
 Cu            47.34136451      33.73616247      43.19193108       0.00000000       0.00000000       0.00000000       0.00100239      -0.00056382      -0.00084356      -3.53210972 F F F
 Cu            44.30627587      41.36939620      46.49042227       0.00000000       0.00000000       0.00000000       0.00109150       0.00150697      -0.00278254      -2.76328355 F F F
 Cu            24.50872728      21.33783340      47.74133083       0.00000000       0.00000000       0.00000000      -0.00166547      -0.00315785       0.00276767      -3.68689604 F F F
 Cu            28.47350521      48.34313419      29.02127262       0.00000000       0.00000000       0.00000000      -0.00010007      -0.00042083      -0.00037874      -3.72666212 F F F
 Cu            35.78925892      43.80600674      37.24224223       0.00000000       0.00000000       0.00000000      -0.00092467      -0.00058561       0.00075203      -3.73241345 F F F
 Cu             9.21142772      19.90319318      31.84804933       0.00000000       0.00000000       0.00000000       0.00081828       0.00048441       0.00019308      -3.48989968 F F F
 Cu            14.37406614      21.42802458      34.57873933       0.00000000       0.00000000       0.00000000      -0.00010479      -0.00064789       0.00046749      -3.69751190 F F F
 Cu            33.29860715      43.09499193       9.54793883       0.00000000       0.00000000       0.00000000       0.00128168      -0.00152087       0.00065786      -3.17907031 F F F
 Cu            23.00146793       7.78167520      31.43679716       0.00000000       0.00000000       0.00000000      -0.00011222      -0.00251754       0.00054997      -3.20247698 F F F
 Cu            15.18229725      24.44115267      17.91803854       0.00000000       0.00000000       0.00000000      -0.00000967      -0.00003520      -0.00074177      -3.75142356 F F F
 Cu            15.37420270      29.33257434      13.92598059       0.00000000       0.00000000       0.00000000      -0.00091729      -0.00079464      -0.00248138      -3.56632287 F F F
 Cu            21.11903009      31.11811687      11.38406285       0.00000000       0.00000000       0.00000000       0.00025980      -0.00051384      -0.00102411      -3.70856919 F F F
 Cu            44.32872372      14.12759838      22.02132457       0.00000000       0.00000000       0.00000000      -0.00016264       0.00363433      -0.00030371      -3.35193175 F F F
 Cu            37.68014177      34.07367951      35.20197983       0.00000000       0.00000000       0.00000000       0.00006486       0.00057964       0.00162770      -3.74918927 F F F
 Cu            32.85135867       9.53722450      32.68897788       0.00000000       0.00000000       0.00000000       0.00046251      -0.00017144       0.00052822      -3.73361834 F F F
 Cu            20.02269826      33.60470999      14.29901908       0.00000000       0.00000000       0.00000000       0.00056846      -0.00002461      -0.00386995      -3.73949603 F F F
 Cu            43.48911112      45.45529257      33.18015290       0.00000000       0.00000000       0.00000000       0.00072416       0.00088704      -0.00030403      -3.51053895 F F F
 Cu            44.95010062      27.48360217      22.16333760       0.00000000       0.00000000       0.00000000       0.00072795       0.00077294       0.00134264      -3.71780952 F F F
 Cu            29.22504112      30.63206868      43.69479199       0.00000000       0.00000000       0.00000000      -0.00083285      -0.00365948       0.00034453      -3.74144242 F F F
 Cu            20.97657175      18.63077532      22.13065752       0.00000000       0.00000000       0.00000000      -0.00061636      -0.00066716       0.00031703      -3.69570268 F F F
 Cu            16.63206065      33.49584331      44.42638129       0.00000000       0.00000000       0.00000000       0.00128436       0.00071473      -0.00066278      -3.75767303 F F F
 Cu            38.64371685      32.97950355      18.19103129       0.00000000       0.00000000       0.00000000      -0.00013095      -0.00009622       0.00108069      -3.73177558 F F F
 Cu            27.10465839      49.42787229      18.99157008       0.00000000       0.00000000       0.00000000       0.00096086      -0.00112057      -0.00043910      -2.96410378 F F F
 Cu            23.09357159      26.99950496      50.77902294       0.00000000       0.00000000       0.00000000      -0.00028722      -0.00103025       0.00009767      -3.60242997 F F F
 Cu            32.60234971      34.38467373      12.01255877       0.00000000       0.00000000       0.00000000      -0.00017355      -0.00108674       0.00053890      -3.75059137 F F F
 Cu            36.18193128      49.29522513      22.23076596       0.00000000       0.00000000       0.00000000      -0.00021046      -0.00177978       0.00023530      -3.36924873 F F F
 Cu            44.88853201      26.78857087      30.24036294       0.00000000       0.00000000       0.00000000       0.00276726       0.00022719       0.00031386      -3.71436260 F F F
 Cu            41.81393913      40.99145407      46.64677492       0.00000000       0.00000000       0.00000000       0.00095367       0.00210609      -0.00361048      -3.53496437 F F F
 Cu            36.71233946      33.68319734      19.62259158       0.00000000       0.00000000       0.00000000      -0.00052172      -0.00053833       0.00083160      -3.74209386 F F F
 Cu            40.37262594      30.96470925      30.72899841       0.00000000       0.00000000       0.00000000       0.00071817      -0.00111875       0.00048512      -3.75623591 F F F
 Cu            38.87410112      37.48238153      17.17355961       0.00000000       0.00000000       0.00000000       0.00008477      -0.00038988       0.00072365      -3.74089179 F F F
 Cu            15.23135473      23.75447765      27.18660926       0.00000000       0.00000000       0.00000000      -0.00023782       0.00139380       0.00034151      -3.75034322 F F F
 Cu            42.66153982      42.80136378      45.23934211       0.00000000       0.00000000       0.00000000       0.00200391       0.00430355      -0.00169282      -3.08749903 F F F
 Cu            12.55363051      23.63500195      17.65305807       0.00000000       0.00000000       0.00000000       0.00039049       0.00009263      -0.00005676      -3.50827154 F F F
 Cu            30.75156714      30.28037144      36.69011174       0.00000000       0.00000000       0.00000000      -0.00080559      -0.00290397       0.00133906      -3.74984324 F F F
 Cu            37.84108501      10.93632326      20.02806422       0.00000000       0.00000000       0.00000000      -0.00105851       0.00184207      -0.00015934      -3.53208283 F F F
 Cu            22.14779862      40.34306572      25.69860774       0.00000000       0.00000000       0.00000000      -0.00073900      -0.00105679      -0.00212658      -3.71144153 F F F
 Cu            30.26366651      26.77743154       9.86712627       0.00000000       0.00000000       0.00000000       0.00017717       0.00021690      -0.00081800      -3.73298893 F F F
 Cu            32.19661735      37.47432115      25.42493639       0.00000000       0.00000000       0.00000000      -0.00117577      -0.00153473       0.00077363      -3.74738812 F F F
 Cu            38.07287229      20.36745476      12.68918180       0.00000000       0.00000000       0.00000000      -0.00163476       0.00168439       0.00114061      -3.53003504 F F F
 Cu            39.55547301      42.10064526      37.11966747       0.00000000       0.00000000       0.00000000       0.00009522       0.00009543       0.00001316      -3.74256742 F F F
 Cu            13.10500244      37.23352373      20.39444174       0.00000000       0.00000000       0.00000000       0.00170166       0.00105333      -0.00336014      -3.74550283 F F F
 Cu            34.64363286      13.84454673      24.74462339       0.00000000       0.00000000       0.00000000      -0.00169153      -0.00000227      -0.00017543      -3.72431843 F F F
 Cu            13.09490948      44.21423671      19.75917076       0.00000000       0.00000000       0.00000000       0.00224430       0.00016607      -0.00346832      -2.86602267 F F F
 Cu            17.38309765      30.84678968      38.51302166       0.00000000       0.00000000       0.00000000       0.00020025       0.00018196       0.00257104      -3.74037322 F F F
 Cu            12.00075949      24.82734807      39.35276779       0.00000000       0.00000000       0.00000000       0.00041641      -0.00086720       0.00151056      -3.64169261 F F F
 Cu            32.29012142      37.21443499       6.20532736       0.00000000       0.00000000       0.00000000       0.00138361      -0.00065258       0.00074262      -3.15407188 F F F
 Cu            22.97049082      12.09305354      33.36281273       0.00000000       0.00000000       0.00000000      -0.00070568      -0.00234810       0.00014526      -3.72978743 F F F
 Cu            33.65488530      32.50003901      22.28871424       0.00000000       0.00000000       0.00000000      -0.00065393      -0.00074742       0.00099907      -3.73239450 F F F
 Cu            37.06722614      38.03312312      21.20759209       0.00000000       0.00000000       0.00000000      -0.00083539      -0.00072614       0.00025832      -3.75075864 F F F
 Cu            33.14915229      19.43150672      22.17171750       0.00000000       0.00000000       0.00000000      -0.00231540       0.00028747       0.00063942      -3.73988048 F F F
 Cu            10.96776519      23.81424037      31.72596199       0.00000000       0.00000000       0.00000000       0.00024662       0.00130503       0.00095375      -3.68076744 F F F
 Cu            27.72907543      16.11642478      36.64072761       0.00000000       0.00000000       0.00000000      -0.00101037      -0.00083951      -0.00029028      -3.73194516 F F F
 Cu            24.53947086      25.10616102       9.48990834       0.00000000       0.00000000       0.00000000       0.00014023       0.00039126      -0.00208972      -3.56901529 F F F