    5000
 Properties=species:S:1:pos:R:3:velocities:R:3:forces:R:3:local_energy:R:1:fix_atoms:S:3 Lattice="59.8926018728       0.0000000000    0.0000000000    0.0000000000   59.9718743696    0.0000000000    0.0000000000    0.0000000000   60.0261967969" temperature=0.00000000 pressure=-30.20374716 time_step=1.0000 time=64.000000 energy=-30868.168984 energy_soap=-7115.59081861  energy_2b=-15761.81001538 energy_3b=0.00000000 energy_core_pot=0.00000000 energy_vdw=0.00000000 energy_exp=0.00000000 energy_xps=0.00000000 virial="8.35836245           11.63420056     -4.00740036     11.63420056    -10.18592231     -0.21825370     -4.00740036     -0.21825370    -10.36607879" stress="-0.00003877          -0.00005396      0.00001859     -0.00005396      0.00004724      0.00000101      0.00001859      0.00000101      0.00004808" volume=215606.391242 step=64
 Ni            10.03710274      40.57147033      31.99686748       0.00000000       0.00000000       0.00000000       0.00013174      -0.00081003      -0.00026841      -5.82943379 F F F
 Ni            25.14511412      33.04974216       9.21675199       0.00000000       0.00000000       0.00000000      -0.00011271       0.00104240       0.00073740      -6.20640404 F F F
 Ni            19.31167723      28.61409788      23.50201853       0.00000000       0.00000000       0.00000000      -0.00047870      -0.00059517       0.00007926      -6.37498913 F F F
 Ni            36.60982419      24.20114949      13.85437368       0.00000000       0.00000000       0.00000000      -0.00037012       0.00067373       0.00036498      -6.36993494 F F F
 Ni            24.30643054      33.71747879      39.91348697       0.00000000       0.00000000       0.00000000      -0.00000888       0.00004367       0.00007185      -6.31795734 F F F
 Ni            19.34080563      25.94106605      42.81104457       0.00000000       0.00000000       0.00000000      -0.00085638       0.00030777       0.00021981      -6.35441980 F F F
 Ni            48.55038630      37.87318636      28.95378578       0.00000000       0.00000000       0.00000000      -0.00040210      -0.00083743       0.00006836      -6.34840048 F F F
 Ni            17.14741937      15.27018413      29.78597440       0.00000000       0.00000000       0.00000000      -0.00022092      -0.00086350       0.00018189      -6.36291116 F F F
 Ni            37.21974670      20.01743442      43.28348301       0.00000000       0.00000000       0.00000000      -0.00103791       0.00060782       0.00003915      -6.37679030 F F F
 Ni            37.73100811      46.26277498      41.13956356       0.00000000       0.00000000       0.00000000       0.00088354      -0.00060796      -0.00013360      -5.84118377 F F F
 Ni            16.13003272      33.39658109      30.34571525       0.00000000       0.00000000       0.00000000       0.00005704      -0.00079757      -0.00024116      -6.36798144 F F F
 Ni            17.19264844      24.97425262      46.35512857       0.00000000       0.00000000       0.00000000      -0.00105058       0.00058274       0.00016255      -5.97514212 F F F
 Ni            34.96397661      23.81875132      35.98061814       0.00000000       0.00000000       0.00000000      -0.00024611       0.00057850      -0.00002133      -6.36276254 F F F
 Ni            17.89708822       9.91690685      29.50936285       0.00000000       0.00000000       0.00000000       0.00063421      -0.00105739       0.00119634      -5.35105888 F F F
 Ni            43.48561543      35.25065411      12.79881144       0.00000000       0.00000000       0.00000000       0.00074517       0.00036092       0.00038657      -5.53781625 F F F
 Ni            31.38237131      43.17835822      36.35808879       0.00000000       0.00000000       0.00000000       0.00084886      -0.00055047      -0.00009101      -6.38106939 F F F
 Ni            22.54863449      37.07354411      26.81255637       0.00000000       0.00000000       0.00000000      -0.00006942      -0.00036171       0.00008159      -6.36952094 F F F
 Ni            12.87566863      28.73468054      22.64881379       0.00000000       0.00000000       0.00000000      -0.00031845      -0.00115204      -0.00013714      -6.36972689 F F F
 Ni            33.38484698      21.50246340      33.11968985       0.00000000       0.00000000       0.00000000      -0.00010724       0.00078597      -0.00010720      -6.36128381 F F F
 Ni            18.00472274      34.23095701      40.91823583       0.00000000       0.00000000       0.00000000       0.00000029       0.00032270      -0.00024170      -6.31736965 F F F
 Ni            22.85779442      45.23406048      28.23417451       0.00000000       0.00000000       0.00000000       0.00026568      -0.00045317       0.00009274      -6.37412377 F F F
 Ni            48.54665336      32.94724902      18.00813946       0.00000000       0.00000000       0.00000000       0.00066695       0.00013737      -0.00013354      -5.82915429 F F F
 Ni            17.77911633      34.32548167      44.52839797       0.00000000       0.00000000       0.00000000      -0.00024480       0.00074668      -0.00019074      -6.34281868 F F F
 Ni            13.91338524      20.38018979      32.29917956       0.00000000       0.00000000       0.00000000      -0.00046442      -0.00114304      -0.00002095      -6.36422280 F F F
 Ni            29.91037846      48.64165268      43.91519160       0.00000000       0.00000000       0.00000000       0.00115694      -0.00024549      -0.00034005      -5.62924689 F F F
 Ni            28.56589611      26.16160857      43.91472279       0.00000000       0.00000000       0.00000000      -0.00102338       0.00036338       0.00001219      -6.24609231 F F F
 Ni            26.21962528      30.11580643      22.66816087       0.00000000       0.00000000       0.00000000      -0.00049334       0.00003413       0.00039840      -6.36820928 F F F
 Ni             9.14127695      35.70259759      26.75379913       0.00000000       0.00000000       0.00000000      -0.00005433      -0.00109948      -0.00017020      -6.03912491 F F F
 Ni            29.75863376      38.98836644      22.07057501       0.00000000       0.00000000       0.00000000       0.00002137      -0.00017534       0.00039343      -6.31721982 F F F
 Ni            16.29302443      28.49187727      12.64957551       0.00000000       0.00000000       0.00000000      -0.00016516      -0.00032997       0.00012076      -5.86357849 F F F
 Ni            47.97023159      27.41116490      17.36257028       0.00000000       0.00000000       0.00000000       0.00034157      -0.00009807      -0.00041877      -5.92504955 F F F
 Ni            20.82247746      25.50544611      16.12294158       0.00000000       0.00000000       0.00000000      -0.00007068       0.00018007       0.00051708      -6.33024634 F F F
 Ni            29.70377581      45.43005449      25.22779834       0.00000000       0.00000000       0.00000000       0.00022167      -0.00020978       0.00029589      -6.37464026 F F F
 Ni            36.75847555      45.76092658      38.89604123       0.00000000       0.00000000       0.00000000       0.00082626      -0.00058370      -0.00012729      -6.33808500 F F F
 Ni            26.42435255      17.32942306      44.54009778       0.00000000       0.00000000       0.00000000      -0.00127792       0.00030248      -0.00043109      -6.33080538 F F F
 Ni            22.03281042      17.33319912      44.12413164       0.00000000       0.00000000       0.00000000      -0.00132446       0.00043783       0.00031935      -6.15915078 F F F
 Ni            34.20036020      22.31801390      49.46363559       0.00000000       0.00000000       0.00000000      -0.00142260       0.00068450       0.00001971      -5.81804141 F F F
 Ni            19.35415214      36.67785401      20.20821963       0.00000000       0.00000000       0.00000000      -0.00044499      -0.00022029       0.00016586      -6.37845587 F F F
 Ni            18.78105383      42.70157059      37.29858898       0.00000000       0.00000000       0.00000000       0.00040061      -0.00038423      -0.00033811      -6.37418320 F F F
 Ni            27.90832660      10.33616513      40.04798204       0.00000000       0.00000000       0.00000000      -0.00122342       0.00068236      -0.00166135      -5.80703710 F F F
 Ni            36.56639053      40.34614457      12.17091085       0.00000000       0.00000000       0.00000000       0.00049024       0.00033860       0.00095869      -5.89561969 F F F
 Ni            24.61735709      47.87051244      39.81959668       0.00000000       0.00000000       0.00000000       0.00083475      -0.00036459      -0.00022916      -6.33802585 F F F
 Ni            21.18066033      22.98151469      21.52252265       0.00000000       0.00000000       0.00000000      -0.00052929      -0.00046570       0.00010116      -6.37538565 F F F
 Ni            38.69957758      14.36754337      33.03014048       0.00000000       0.00000000       0.00000000      -0.00004876       0.00096265       0.00006520      -6.37632078 F F F
 Ni            30.56927271      14.80778415      34.24845736       0.00000000       0.00000000       0.00000000      -0.00025223       0.00097476      -0.00072862      -6.36400122 F F F
 Ni            21.31255121      11.99870020      25.61256369       0.00000000       0.00000000       0.00000000       0.00083435      -0.00064701       0.00157377      -6.34745369 F F F
 Ni            36.62618864      39.19912849      43.16730139       0.00000000       0.00000000       0.00000000       0.00035247      -0.00059564      -0.00001744      -6.36158659 F F F
 Ni            14.92936094      45.42666272      25.85887963       0.00000000       0.00000000       0.00000000      -0.00005935      -0.00052170      -0.00003789      -6.03673360 F F F
 Ni            31.82644199      13.98938333      45.21032549       0.00000000       0.00000000       0.00000000      -0.00150631       0.00035620      -0.00082021      -6.10790062 F F F
 Ni            39.93825738      34.64266312      18.08426140       0.00000000       0.00000000       0.00000000       0.00072227       0.00012160       0.00029689      -6.29775121 F F F
 Ni            29.28365467      33.84095372      29.28158624       0.00000000       0.00000000       0.00000000       0.00018233      -0.00016327       0.00006814      -6.38154879 F F F
 Ni            14.00590084      19.99458670      35.84625478       0.00000000       0.00000000       0.00000000      -0.00051365      -0.00078255       0.00011116      -6.38822581 F F F
 Ni            18.28955534      30.16808593      35.61509516       0.00000000       0.00000000       0.00000000       0.00015073      -0.00056829      -0.00018353      -6.37082925 F F F
 Ni            30.06791703      10.23644275      32.50885476       0.00000000       0.00000000       0.00000000      -0.00017147       0.00093389      -0.00154207      -6.28406646 F F F
 Ni            22.60037842      51.02671700      34.47667356       0.00000000       0.00000000       0.00000000       0.00055545      -0.00060208       0.00006508      -5.55767474 F F F
 Ni            47.91678840      25.50776205      43.40194845       0.00000000       0.00000000       0.00000000      -0.00011880       0.00019597       0.00021413      -5.56211735 F F F
 Ni            34.95154539      27.58935325      44.50268533       0.00000000       0.00000000       0.00000000      -0.00082973       0.00030585      -0.00070950      -6.16423732 F F F
 Ni            25.93638052      41.59781070      38.93824375       0.00000000       0.00000000       0.00000000       0.00062069      -0.00028800      -0.00021681      -6.36765389 F F F
 Ni             9.75237947      33.51463853      29.51125056       0.00000000       0.00000000       0.00000000       0.00010896      -0.00112970      -0.00025439      -6.29007143 F F F
 Ni            26.00775022      10.14420922      33.88576027       0.00000000       0.00000000       0.00000000      -0.00044019       0.00236310      -0.00168402      -5.93264950 F F F
 Ni            21.88689615      23.84729978      34.53536135       0.00000000       0.00000000       0.00000000      -0.00010505      -0.00046090       0.00014693      -6.34960716 F F F
 Ni            28.17894109      37.15569912      21.44340045       0.00000000       0.00000000       0.00000000      -0.00012912      -0.00012043       0.00038082      -6.39450768 F F F
 Ni            14.19656957      21.07818674      17.08006185       0.00000000       0.00000000       0.00000000      -0.00018598      -0.00117836       0.00001945      -5.81765845 F F F
 Ni            24.00589373      44.01358426      35.98970350       0.00000000       0.00000000       0.00000000       0.00057212      -0.00047665      -0.00017169      -6.37475513 F F F
 Ni            30.71029098      24.22121608      45.75896597       0.00000000       0.00000000       0.00000000      -0.00120072       0.00045065       0.00000912      -6.34826735 F F F
 Ni            19.58777063      32.97688746      14.80946191       0.00000000       0.00000000       0.00000000      -0.00045610       0.00015933       0.00024739      -6.37614902 F F F
 Ni            29.25921845      49.01920654      30.70203692       0.00000000       0.00000000       0.00000000       0.00050356      -0.00048590       0.00016529      -6.37284776 F F F
 Ni            37.11574309      40.31649345      26.46295586       0.00000000       0.00000000       0.00000000       0.00054753      -0.00029472       0.00029161      -6.37514052 F F F
 Ni            13.15229912      46.77845817      30.02616587       0.00000000       0.00000000       0.00000000       0.00012278      -0.00066213      -0.00012646      -5.37324840 F F F
 Ni            25.77181935      45.45589364      34.98975580       0.00000000       0.00000000       0.00000000       0.00064792      -0.00055329      -0.00009854      -6.35976074 F F F
 Ni            11.22099981      17.30276680      31.39667637       0.00000000       0.00000000       0.00000000      -0.00035564      -0.00139383       0.00006524      -5.36247289 F F F
 Ni            47.74501972      20.02202196      25.91490860       0.00000000       0.00000000       0.00000000       0.00041923       0.00029603      -0.00017581      -6.28077354 F F F
 Ni            25.94475518      24.56638572       6.98788684       0.00000000       0.00000000       0.00000000      -0.00019867       0.00144931       0.00040766      -5.09065871 F F F
 Ni            24.04634224      15.33494831      22.24221944       0.00000000       0.00000000       0.00000000       0.00006179      -0.00014701       0.00075664      -6.37257135 F F F
 Ni            21.21540763      31.56426379      20.95687982       0.00000000       0.00000000       0.00000000      -0.00055834      -0.00016961       0.00023826      -6.36656021 F F F
 Ni            43.01332981      25.95281931      46.82189993       0.00000000       0.00000000       0.00000000      -0.00082086       0.00075743      -0.00007624      -6.14957170 F F F
 Ni            20.20071175      24.96602882      32.86391490       0.00000000       0.00000000       0.00000000      -0.00012302      -0.00085793       0.00013663      -6.36463060 F F F
 Ni            15.59402084      47.10061746      24.30613786       0.00000000       0.00000000       0.00000000      -0.00001584      -0.00031777       0.00015268      -5.23989941 F F F
 Ni            13.11877582      30.31437107      45.77613039       0.00000000       0.00000000       0.00000000      -0.00033936       0.00066133      -0.00081485      -5.33101355 F F F
 Ni            17.77237128      34.80373419      19.72443784       0.00000000       0.00000000       0.00000000      -0.00048112      -0.00031676       0.00007870      -6.36688752 F F F
 Ni            39.53712007      38.46043272      20.05072848       0.00000000       0.00000000       0.00000000       0.00046815       0.00007466       0.00039513      -6.36510835 F F F
 Ni             9.44804637      40.22853717      23.48987538       0.00000000       0.00000000       0.00000000      -0.00032226      -0.00096323       0.00004333      -5.15474759 F F F
 Ni            29.69906605      42.51470331      16.51715470       0.00000000       0.00000000       0.00000000       0.00015179      -0.00008772       0.00081333      -6.37146528 F F F
 Ni            22.97977086      21.14224047      31.72563320       0.00000000       0.00000000       0.00000000       0.00023935      -0.00030613       0.00048938      -6.24604173 F F F
 Ni            34.28019034      19.86322132      20.00475594       0.00000000       0.00000000       0.00000000      -0.00040958       0.00046267       0.00007211      -6.37735942 F F F
 Ni            35.65753027      28.96484750      16.49924349       0.00000000       0.00000000       0.00000000       0.00016867       0.00043726       0.00039044      -6.28883989 F F F
 Ni            31.31858451      46.70580405      29.00656196       0.00000000       0.00000000       0.00000000       0.00048026      -0.00042102       0.00020204      -6.37304540 F F F
 Ni            31.93183980      23.54780683      24.81835020       0.00000000       0.00000000       0.00000000      -0.00019860       0.00040652       0.00013198      -6.35674075 F F F
 Ni            21.05280726      27.00177216      24.12621907       0.00000000       0.00000000       0.00000000      -0.00049732      -0.00047073       0.00014971      -6.37610513 F F F
 Ni            33.58797475      34.05907145       8.62465097       0.00000000       0.00000000       0.00000000       0.00037401       0.00096341       0.00091891      -5.84567737 F F F
 Ni            13.27324247      37.89344772      16.32504259       0.00000000       0.00000000       0.00000000      -0.00047758      -0.00039020       0.00005280      -5.59663798 F F F
 Ni            37.88685278      25.78214836      20.35380819       0.00000000       0.00000000       0.00000000      -0.00055672       0.00021732      -0.00039933      -6.34846725 F F F
 Ni            24.57955034      35.99437903      48.62323838       0.00000000       0.00000000       0.00000000      -0.00028486       0.00070354      -0.00008492      -6.33224254 F F F
 Ni            26.10899738      18.98808628      48.26336724       0.00000000       0.00000000       0.00000000      -0.00121895       0.00034306      -0.00022523      -5.72798056 F F F
 Ni            24.43396914      46.53331304      31.98003517       0.00000000       0.00000000       0.00000000       0.00050328      -0.00057703       0.00002382      -6.37924314 F F F
 Ni            36.41211624      41.60482783      31.15863264       0.00000000       0.00000000       0.00000000       0.00142896      -0.00063933       0.00035199      -6.37322500 F F F
 Ni            23.39651403      24.94426083      44.98160705       0.00000000       0.00000000       0.00000000      -0.00112965       0.00059200       0.00029772      -6.33323237 F F F
 Ni            35.62166604      32.04859387      10.67924473       0.00000000       0.00000000       0.00000000       0.00025435       0.00079588       0.00075916      -6.34304769 F F F
 Ni            22.50998538      19.32930393      19.69991837       0.00000000       0.00000000       0.00000000      -0.00035333      -0.00031137       0.00022340      -6.37612694 F F F
 Ni            41.58131091      28.47398364      38.70929176       0.00000000       0.00000000       0.00000000       0.00037825      -0.00019011      -0.00019634      -6.35900453 F F F
 Ni            21.34532023      31.10524137       9.91433204       0.00000000       0.00000000       0.00000000      -0.00030762       0.00067156       0.00042827      -6.12957007 F F F
 Ni            29.03452644      50.47410088      21.31020958       0.00000000       0.00000000       0.00000000       0.00000957       0.00005443       0.00051723      -5.37681090 F F F
 Ni            50.13376848      28.23885895      17.96946051       0.00000000       0.00000000       0.00000000       0.00049972      -0.00010937      -0.00059509      -5.20171350 F F F
 Ni            15.90125238      39.95942614      18.95428403       0.00000000       0.00000000       0.00000000      -0.00042788      -0.00032491       0.00014070      -6.36248940 F F F
 Ni            31.19294033      10.27446800      21.76024295       0.00000000       0.00000000       0.00000000      -0.00015480       0.00057032       0.00022006      -5.87113005 F F F
 Ni            26.66490504      18.83900842      18.76841845       0.00000000       0.00000000       0.00000000      -0.00045808       0.00031381       0.00024488      -6.36787672 F F F
 Ni            48.73044961      22.91612961      35.64529637       0.00000000       0.00000000       0.00000000       0.00032044      -0.00010321       0.00025087      -6.35304147 F F F
 Ni            38.65272355      42.63039132      31.26342781       0.00000000       0.00000000       0.00000000       0.00157559      -0.00064906       0.00030113      -6.37876265 F F F
 Ni            21.01160319      30.43516399      49.40934961       0.00000000       0.00000000       0.00000000      -0.00092785       0.00096594       0.00006219      -5.80786004 F F F
 Ni            14.97483373      37.35118652      29.21827246       0.00000000       0.00000000       0.00000000       0.00004606      -0.00075853      -0.00026782      -6.36520517 F F F
 Ni            28.67074280      35.55812826      25.37056569       0.00000000       0.00000000       0.00000000      -0.00002410      -0.00023885       0.00020835      -6.30054262 F F F
 Ni            28.13998144      38.87638785      38.68962246       0.00000000       0.00000000       0.00000000       0.00050701      -0.00026696      -0.00013746      -6.36902255 F F F
 Ni            14.97991011      44.40132099      32.94316667       0.00000000       0.00000000       0.00000000       0.00021412      -0.00061119      -0.00027299      -6.35184245 F F F
 Ni            26.73216242      35.18931961      15.34092129       0.00000000       0.00000000       0.00000000      -0.00033627       0.00035689       0.00058074      -6.35856456 F F F
 Ni            38.47334840      18.71773042      38.11030838       0.00000000       0.00000000       0.00000000      -0.00053224       0.00068824       0.00014809      -6.37248786 F F F
 Ni            14.13891888      34.01519485      42.54948023       0.00000000       0.00000000       0.00000000       0.00017676       0.00004639      -0.00063345      -6.29357808 F F F
 Ni            47.47085251      32.42620718      29.84182500       0.00000000       0.00000000       0.00000000       0.00108469      -0.00085465      -0.00002904      -6.34266754 F F F
 Ni            31.64076543      11.50046140      18.56026572       0.00000000       0.00000000       0.00000000      -0.00018252       0.00044330       0.00020594      -5.61606863 F F F
 Ni            49.99588495      31.95613759      23.38820281       0.00000000       0.00000000       0.00000000       0.00080705      -0.00024782      -0.00059022      -6.24204782 F F F
 Ni            45.19862393      29.36606913      40.66681757       0.00000000       0.00000000       0.00000000       0.00034163      -0.00000942      -0.00025489      -6.34825992 F F F
 Ni            45.89612922      26.14460154      28.86670699       0.00000000       0.00000000       0.00000000       0.00071305      -0.00013644      -0.00020590      -6.37254618 F F F
 Ni            43.19422560      22.89899863      29.48563741       0.00000000       0.00000000       0.00000000       0.00047140       0.00029611      -0.00012476      -6.37426799 F F F
 Ni            17.49448627      25.27113825      30.44948791       0.00000000       0.00000000       0.00000000      -0.00021608      -0.00104247       0.00001790      -6.38449834 F F F
 Ni            31.30013241      30.66987467      49.25699331       0.00000000       0.00000000       0.00000000      -0.00115005       0.00047063       0.00092264      -6.22479629 F F F
 Ni            24.57972961      24.33742079      19.46163566       0.00000000       0.00000000       0.00000000      -0.00090419       0.00006079       0.00004708      -6.33401800 F F F
 Ni            29.15234560      20.60392899      37.08564483       0.00000000       0.00000000       0.00000000      -0.00056451       0.00064210      -0.00012556      -6.35682347 F F F
 Ni            23.25654496      26.31146421      16.26875819       0.00000000       0.00000000       0.00000000      -0.00035407       0.00039846       0.00045295      -6.32234952 F F F
 Ni            19.50736128      24.88334018      18.15072186       0.00000000       0.00000000       0.00000000      -0.00034718      -0.00031864       0.00032554      -6.35172911 F F F
 Ni            28.56714229      41.97810131      28.48501512       0.00000000       0.00000000       0.00000000       0.00048616      -0.00038114       0.00010432      -6.37208517 F F F
 Ni            12.64009436      39.67343237      17.89153625       0.00000000       0.00000000       0.00000000      -0.00046762      -0.00048274       0.00007667      -5.55036841 F F F
 Ni            14.54247789      43.53476024      22.15030464       0.00000000       0.00000000       0.00000000      -0.00031987      -0.00049564       0.00018239      -6.11595771 F F F
 Ni            19.65611848      38.75098274      29.44295054       0.00000000       0.00000000       0.00000000       0.00011125      -0.00052136      -0.00011862      -6.32766123 F F F
 Ni            20.22354129      23.65563295      42.61740661       0.00000000       0.00000000       0.00000000      -0.00098664       0.00026145       0.00034354      -6.37805675 F F F
 Ni            36.84858803      18.42600429      16.05597094       0.00000000       0.00000000       0.00000000      -0.00064081       0.00062374      -0.00005328      -6.33895157 F F F
 Ni            37.29332948      18.58896693      22.40313442       0.00000000       0.00000000       0.00000000      -0.00002947       0.00067083      -0.00013548      -6.37352466 F F F
 Ni            41.63718008      25.74127623      22.78541045       0.00000000       0.00000000       0.00000000       0.00021974       0.00005221      -0.00035329      -6.36425902 F F F
 Ni            38.77244317      15.24608819      37.88003474       0.00000000       0.00000000       0.00000000      -0.00069942       0.00079593       0.00009303      -6.36875086 F F F
 Ni            36.14354439      32.92483391      51.23522822       0.00000000       0.00000000       0.00000000      -0.00069997       0.00059545      -0.00020093      -5.55672030 F F F
 Ni            19.27383427      17.73076683      43.51294842       0.00000000       0.00000000       0.00000000      -0.00097786       0.00009214       0.00033991      -6.09181460 F F F
 Ni            28.99169211      24.99386889      19.23333579       0.00000000       0.00000000       0.00000000      -0.00070251       0.00031949       0.00041259      -6.33513394 F F F
 Ni            37.93713361      23.56068511      11.89414886       0.00000000       0.00000000       0.00000000      -0.00058191       0.00065466       0.00019230      -6.37185571 F F F
 Ni            25.96285644      11.09151195      38.75699073       0.00000000       0.00000000       0.00000000      -0.00103344       0.00075718      -0.00145065      -5.84048184 F F F
 Ni            37.83830420      17.67714869      24.60356213       0.00000000       0.00000000       0.00000000       0.00022014       0.00080457      -0.00013645      -6.37383612 F F F
 Ni            19.37454293      33.57608090      42.81726615       0.00000000       0.00000000       0.00000000      -0.00021763       0.00051603      -0.00003193      -6.30170306 F F F
 Ni            29.69504004      30.50139443      29.16840829       0.00000000       0.00000000       0.00000000      -0.00016426      -0.00001297       0.00038837      -6.27066065 F F F
 Ni            43.57837372      30.01526840      34.34281347       0.00000000       0.00000000       0.00000000       0.00054428      -0.00047044      -0.00022743      -6.38347708 F F F
 Ni            33.57974944      44.21136655      36.49464664       0.00000000       0.00000000       0.00000000       0.00097072      -0.00065567      -0.00009926      -6.36250025 F F F
 Ni            42.72816629      32.34095385      31.92750672       0.00000000       0.00000000       0.00000000       0.00034714      -0.00074555      -0.00023973      -6.20908613 F F F
 Ni            28.45335141      32.39580416      45.01767811       0.00000000       0.00000000       0.00000000      -0.00024314       0.00002706       0.00064783      -6.24041839 F F F
 Ni            36.19051554      33.01812862      17.22598159       0.00000000       0.00000000       0.00000000       0.00055735       0.00020016       0.00050054      -6.25150248 F F F
 Ni            31.02511045      26.29622691       9.47548304       0.00000000       0.00000000       0.00000000      -0.00030178       0.00119076       0.00065785      -6.35483281 F F F
 Ni            38.86048580      20.19625289      21.34818125       0.00000000       0.00000000       0.00000000      -0.00010766       0.00056551      -0.00015581      -6.36099108 F F F
 Ni            25.84474187      14.34600421      17.08238719       0.00000000       0.00000000       0.00000000      -0.00029519       0.00017913       0.00027919      -6.30548424 F F F
 Ni            33.22400639      44.20417752      40.81322340       0.00000000       0.00000000       0.00000000       0.00079696      -0.00049519      -0.00009589      -6.37549787 F F F
 Ni            24.68787587      20.48276813      15.34836346       0.00000000       0.00000000       0.00000000      -0.00057450       0.00030078       0.00018275      -6.36430398 F F F
 Ni            24.23563442      26.43821462      18.43828780       0.00000000       0.00000000       0.00000000      -0.00046447       0.00031710       0.00044300      -6.30705595 F F F